version 2
run General-0-20160808-14:05:49-8827
attr configname General
attr datetime 20160808-14:05:49
attr experiment General
attr inifile _defaults.ini
attr iterationvars ""
attr iterationvars2 $repetition=0
attr measurement ""
attr network vanets.src.RSUScenario
attr processid 8827
attr repetition 0
attr replication #0
attr resultdir results
attr runnumber 0
attr seedset 0

vector 6  RSUScenario.node[0].veinsmobility  posx  ETV
vector 7  RSUScenario.node[0].veinsmobility  posy  ETV
vector 8  RSUScenario.node[0].veinsmobility  speed  ETV
vector 9  RSUScenario.node[0].veinsmobility  acceleration  ETV
vector 10  RSUScenario.node[0].veinsmobility  co2emission  ETV
vector 13  RSUScenario.node[1].veinsmobility  posx  ETV
vector 14  RSUScenario.node[1].veinsmobility  posy  ETV
vector 15  RSUScenario.node[1].veinsmobility  speed  ETV
vector 16  RSUScenario.node[1].veinsmobility  acceleration  ETV
vector 17  RSUScenario.node[1].veinsmobility  co2emission  ETV
vector 20  RSUScenario.node[2].veinsmobility  posx  ETV
vector 21  RSUScenario.node[2].veinsmobility  posy  ETV
vector 22  RSUScenario.node[2].veinsmobility  speed  ETV
vector 23  RSUScenario.node[2].veinsmobility  acceleration  ETV
vector 24  RSUScenario.node[2].veinsmobility  co2emission  ETV
vector 27  RSUScenario.node[3].veinsmobility  posx  ETV
vector 28  RSUScenario.node[3].veinsmobility  posy  ETV
vector 29  RSUScenario.node[3].veinsmobility  speed  ETV
vector 30  RSUScenario.node[3].veinsmobility  acceleration  ETV
vector 31  RSUScenario.node[3].veinsmobility  co2emission  ETV
vector 34  RSUScenario.node[4].veinsmobility  posx  ETV
vector 35  RSUScenario.node[4].veinsmobility  posy  ETV
vector 36  RSUScenario.node[4].veinsmobility  speed  ETV
vector 37  RSUScenario.node[4].veinsmobility  acceleration  ETV
vector 38  RSUScenario.node[4].veinsmobility  co2emission  ETV
vector 41  RSUScenario.node[5].veinsmobility  posx  ETV
vector 42  RSUScenario.node[5].veinsmobility  posy  ETV
vector 43  RSUScenario.node[5].veinsmobility  speed  ETV
vector 44  RSUScenario.node[5].veinsmobility  acceleration  ETV
vector 45  RSUScenario.node[5].veinsmobility  co2emission  ETV
vector 48  RSUScenario.node[6].veinsmobility  posx  ETV
vector 49  RSUScenario.node[6].veinsmobility  posy  ETV
vector 50  RSUScenario.node[6].veinsmobility  speed  ETV
vector 51  RSUScenario.node[6].veinsmobility  acceleration  ETV
vector 52  RSUScenario.node[6].veinsmobility  co2emission  ETV
vector 55  RSUScenario.node[7].veinsmobility  posx  ETV
vector 56  RSUScenario.node[7].veinsmobility  posy  ETV
vector 57  RSUScenario.node[7].veinsmobility  speed  ETV
vector 58  RSUScenario.node[7].veinsmobility  acceleration  ETV
vector 59  RSUScenario.node[7].veinsmobility  co2emission  ETV
vector 62  RSUScenario.node[8].veinsmobility  posx  ETV
vector 63  RSUScenario.node[8].veinsmobility  posy  ETV
vector 64  RSUScenario.node[8].veinsmobility  speed  ETV
vector 65  RSUScenario.node[8].veinsmobility  acceleration  ETV
vector 66  RSUScenario.node[8].veinsmobility  co2emission  ETV
vector 69  RSUScenario.node[9].veinsmobility  posx  ETV
vector 70  RSUScenario.node[9].veinsmobility  posy  ETV
vector 71  RSUScenario.node[9].veinsmobility  speed  ETV
vector 72  RSUScenario.node[9].veinsmobility  acceleration  ETV
vector 73  RSUScenario.node[9].veinsmobility  co2emission  ETV
vector 76  RSUScenario.node[10].veinsmobility  posx  ETV
vector 77  RSUScenario.node[10].veinsmobility  posy  ETV
vector 78  RSUScenario.node[10].veinsmobility  speed  ETV
vector 79  RSUScenario.node[10].veinsmobility  acceleration  ETV
vector 80  RSUScenario.node[10].veinsmobility  co2emission  ETV
vector 83  RSUScenario.node[11].veinsmobility  posx  ETV
vector 84  RSUScenario.node[11].veinsmobility  posy  ETV
vector 85  RSUScenario.node[11].veinsmobility  speed  ETV
vector 86  RSUScenario.node[11].veinsmobility  acceleration  ETV
vector 87  RSUScenario.node[11].veinsmobility  co2emission  ETV
vector 90  RSUScenario.node[12].veinsmobility  posx  ETV
vector 91  RSUScenario.node[12].veinsmobility  posy  ETV
vector 92  RSUScenario.node[12].veinsmobility  speed  ETV
vector 93  RSUScenario.node[12].veinsmobility  acceleration  ETV
vector 94  RSUScenario.node[12].veinsmobility  co2emission  ETV
vector 97  RSUScenario.node[13].veinsmobility  posx  ETV
vector 98  RSUScenario.node[13].veinsmobility  posy  ETV
vector 99  RSUScenario.node[13].veinsmobility  speed  ETV
vector 100  RSUScenario.node[13].veinsmobility  acceleration  ETV
vector 101  RSUScenario.node[13].veinsmobility  co2emission  ETV
10	6	0.3	1.4276208928798
10	7	0.4	1.5553504369406
10	8	0.5	1.6547258140606
10	9	0.6	1.7983555805977
10	10	0.7	1.8323674505787
10	11	0.8	2.0110897446338
10	12	0.9	1.970451684244
10	15	1	2.244901373431
10	16	1.1	2.2119208452933
10	17	1.2	2.2548819012347
10	18	1.3	2.5345448660167
10	19	1.4	2.6013847819414
10	20	1.5	2.852151772081
10	21	1.6	2.3526342216865
10	22	1.7	3.339605186172
10	23	1.8	2.4276646371033
10	24	1.9	3.3234379637286
10	27	2	3.3108190720898
10	28	2.1	3.2988402737822
10	29	2.2	2.9578171889378
10	30	2.3	2.9959376211745
10	31	2.4	3.4908200907348
10	32	2.5	3.6670806850063
10	33	2.6	3.6268696198063
10	34	2.7	4.0205201967415
10	35	2.8	3.1988957479633
10	36	2.9	3.4137976506977
10	39	3	4.907912272511
10	40	3.1	4.5496391886597
10	41	3.2	5.1843707050129
10	42	3.3	5.490502883119
10	43	3.4	3.8970556575359
10	44	3.5	4.0812734992789
10	45	3.6	3.9458891055838
10	46	3.7	3.7593760917064
10	47	3.8	4.2273339749307
10	48	3.9	5.1045553963918
10	51	4	4.4294934204996
10	52	4.1	6.1704815888201
10	53	4.2	4.9722185416067
10	54	4.3	6.3796667209292
10	55	4.4	4.3550328563445
10	56	4.5	5.5724689565354
10	57	4.6	5.9783016536976
10	58	4.7	6.531517038645
10	59	4.8	5.1600288586713
10	60	4.9	6.1886912441601
10	63	5	5.9549957283831
10	64	5.1	7.7853608744789
10	65	5.2	6.0293065596097
10	66	5.3	6.1389862136434
10	67	5.4	6.215380184048
10	68	5.5	5.2080809029875
10	69	5.6	6.1561018361202
10	70	5.7	7.3629412347938
10	71	5.8	7.2141082079045
10	72	5.9	6.3899916329279
10	75	6	8.8173762262081
10	76	6.1	6.712915009577
10	77	6.2	6.7856909201694
10	78	6.3	8.0773156423548
10	79	6.4	8.3743676988308
10	80	6.5	8.4713421478856
10	81	6.6	8.1436375074094
10	82	6.7	6.1246890190291
10	83	6.8	9.3014481119437
10	84	6.9	6.1272339967354
10	87	7	9.3496226877566
10	88	7.1	8.5304672898817
10	89	7.2	9.1242607840614
10	90	7.3	0.973
10	91	7.4	4.3577761273913
10	92	7.5	0.973
10	93	7.6	2.5720389208699
10	94	7.7	2.8766605061585
10	95	7.8	4.3165487169568
10	96	7.9	0.973
10	99	8	1.5897409358382
10	100	8.1	4.2992840120413
10	101	8.2	3.8192287130312
10	102	8.3	0.973
10	103	8.4	4.9896392768023
10	104	8.5	0.973
10	105	8.6	3.2116257252267
10	106	8.7	2.8822162993739
10	107	8.8	0.973
10	108	8.9	2.2705069044256
10	111	9	3.8308782287708
10	112	9.1	2.0735985700595
10	113	9.2	0.973
10	114	9.3	2.8376475775941
10	115	9.4	1.3397800903168
10	116	9.5	0.973
10	117	9.6	0.973
10	118	9.7	2.6721583083952
10	119	9.8	0.973
10	120	9.9	0.973
10	123	10	0.973
10	125	10.1	0.973
10	126	10.2	0.973
10	127	10.3	0.973
10	128	10.4	0.973
10	129	10.5	0.973
10	130	10.6	0.973
10	131	10.7	0.973
10	132	10.8	0.973
10	133	10.9	0.973
10	136	11	0.973
10	137	11.1	0.973
10	138	11.2	0.973
10	139	11.3	0.973
10	140	11.4	0.973
10	141	11.5	0.973
10	142	11.6	0.973
10	143	11.7	0.973
10	144	11.8	0.973
10	145	11.9	0.973
10	148	12	0.973
10	149	12.1	0.973
10	150	12.2	0.973
10	151	12.3	0.973
10	152	12.4	0.973
10	153	12.5	0.973
10	154	12.6	0.973
10	155	12.7	0.973
10	156	12.8	0.973
10	157	12.9	0.973
10	160	13	0.973
10	161	13.1	0.973
10	162	13.2	0.973
10	163	13.3	0.973
10	164	13.4	0.973
10	165	13.5	0.973
10	166	13.6	0.973
10	167	13.7	0.973
10	168	13.8	0.973
10	169	13.9	0.973
10	172	14	0.973
10	173	14.1	0.973
10	174	14.2	0.973
10	175	14.3	0.973
10	176	14.4	0.973
10	177	14.5	0.973
10	178	14.6	0.973
10	179	14.7	0.973
10	180	14.8	0.973
10	181	14.9	0.973
10	184	15	0.973
10	185	15.1	0.973
10	186	15.2	0.973
10	187	15.3	0.973
10	188	15.4	0.973
10	189	15.5	0.973
10	190	15.6	0.973
10	191	15.7	0.973
10	192	15.8	0.973
10	193	15.9	0.973
10	196	16	0.973
10	197	16.1	0.973
10	198	16.2	0.973
10	199	16.3	0.973
10	200	16.4	0.973
10	201	16.5	0.973
10	202	16.6	0.973
10	203	16.7	0.973
10	204	16.8	0.973
10	205	16.9	0.973
10	208	17	0.973
10	209	17.1	0.973
10	210	17.2	0.973
10	211	17.3	0.973
10	212	17.4	0.973
10	213	17.5	0.973
10	214	17.6	0.973
10	215	17.7	0.973
10	216	17.8	0.973
10	217	17.9	0.973
10	220	18	0.973
10	221	18.1	0.973
10	222	18.2	0.973
10	223	18.3	0.973
10	224	18.4	0.973
10	225	18.5	0.973
10	226	18.6	0.973
10	227	18.7	0.973
10	228	18.8	0.973
10	229	18.9	0.973
10	232	19	0.973
10	233	19.1	0.973
10	234	19.2	0.973
10	235	19.3	0.973
10	236	19.4	0.973
10	237	19.5	0.973
10	238	19.6	0.973
10	239	19.7	0.973
10	240	19.8	0.973
10	241	19.9	0.973
10	244	20	0.973
10	245	20.1	0.973
10	246	20.2	0.973
10	247	20.3	0.973
10	248	20.4	0.973
10	249	20.5	0.973
10	250	20.6	0.973
10	251	20.7	0.973
10	252	20.8	0.973
10	253	20.9	0.973
10	256	21	0.973
10	257	21.1	0.973
10	258	21.2	0.973
10	259	21.3	0.973
10	260	21.4	0.973
10	261	21.5	0.973
10	262	21.6	0.973
10	263	21.7	0.973
10	264	21.8	0.973
10	265	21.9	0.973
10	268	22	0.973
10	269	22.1	0.973
10	270	22.2	0.973
10	271	22.3	0.973
10	272	22.4	0.973
10	273	22.5	0.973
10	274	22.6	0.973
10	713	22.7	0.973
10	714	22.8	0.973
10	715	22.9	0.973
10	718	23	0.973
10	719	23.1	0.973
10	720	23.2	0.973
10	721	23.3	0.973
10	722	23.4	0.973
10	723	23.5	0.973
10	724	23.6	0.973
10	779	23.7	0.973
10	780	23.8	0.973
10	781	23.9	0.973
10	784	24	0.973
10	785	24.1	0.973
10	786	24.2	0.973
10	787	24.3	0.973
10	788	24.4	0.973
10	789	24.5	0.973
10	790	24.6	0.973
10	791	24.7	0.973
10	792	24.8	0.973
10	793	24.9	0.973
10	796	25	0.973
10	797	25.1	0.973
10	798	25.2	0.973
10	799	25.3	0.973
10	800	25.4	0.973
10	801	25.5	0.973
10	802	25.6	0.973
10	803	25.7	0.973
10	804	25.8	0.973
10	805	25.9	0.973
10	808	26	0.973
10	809	26.1	0.973
10	810	26.2	0.973
10	811	26.3	0.973
10	812	26.4	0.973
10	813	26.5	0.973
10	814	26.6	0.973
10	815	26.7	0.973
10	816	26.8	0.973
10	817	26.9	0.973
10	820	27	0.973
10	821	27.1	0.973
10	822	27.2	0.973
10	823	27.3	0.973
10	824	27.4	0.973
10	825	27.5	0.973
10	826	27.6	0.973
10	827	27.7	0.973
10	828	27.8	0.973
10	829	27.9	0.973
10	832	28	0.973
10	833	28.1	0.973
10	834	28.2	0.973
10	835	28.3	0.973
10	836	28.4	0.973
10	837	28.5	0.973
10	838	28.6	0.973
10	839	28.7	0.973
10	840	28.8	0.973
10	841	28.9	0.973
10	844	29	0.973
10	845	29.1	0.973
10	846	29.2	0.973
10	847	29.3	0.973
10	848	29.4	0.973
10	849	29.5	0.973
10	850	29.6	0.973
10	851	29.7	0.973
10	852	29.8	0.973
10	853	29.9	0.973
10	856	30	0.973
10	857	30.1	0.973
10	858	30.2	0.973
10	859	30.3	0.973
10	860	30.4	0.973
10	861	30.5	0.973
10	862	30.6	0.973
10	863	30.7	0.973
10	864	30.8	0.973
10	865	30.9	0.973
10	868	31	0.973
10	869	31.1	0.973
10	870	31.2	0.973
10	871	31.3	0.973
10	872	31.4	0.973
10	873	31.5	0.973
10	874	31.6	0.973
10	875	31.7	0.973
10	876	31.8	0.973
10	877	31.9	0.973
10	880	32	0.973
10	881	32.1	0.973
10	882	32.2	0.973
10	883	32.3	0.973
10	884	32.4	0.973
10	885	32.5	0.973
10	886	32.6	0.973
10	887	32.7	0.973
10	888	32.8	0.973
10	889	32.9	0.973
10	892	33	0.973
10	893	33.1	0.973
10	894	33.2	0.973
10	895	33.3	0.973
10	896	33.4	0.973
10	897	33.5	0.973
10	898	33.6	0.973
10	899	33.7	0.973
10	900	33.8	0.973
10	901	33.9	0.973
10	904	34	0.973
10	905	34.1	0.973
10	906	34.2	0.973
10	907	34.3	0.973
10	908	34.4	0.973
10	909	34.5	0.973
10	910	34.6	0.973
10	911	34.7	0.973
10	912	34.8	0.973
10	913	34.9	0.973
10	916	35	0.973
10	917	35.1	0.973
10	918	35.2	0.973
10	919	35.3	0.973
10	920	35.4	0.973
10	921	35.5	0.973
10	922	35.6	0.973
10	923	35.7	0.973
10	924	35.8	0.973
10	925	35.9	0.973
10	928	36	0.973
10	929	36.1	0.973
10	930	36.2	0.973
10	931	36.3	0.973
10	932	36.4	0.973
10	933	36.5	0.973
10	934	36.6	0.973
10	935	36.7	0.973
10	936	36.8	0.973
10	937	36.9	0.973
10	940	37	0.973
10	941	37.1	0.973
10	942	37.2	0.973
10	943	37.3	0.973
10	944	37.4	0.973
10	945	37.5	0.973
10	946	37.6	0.973
10	947	37.7	0.973
10	948	37.8	0.973
10	949	37.9	0.973
10	952	38	0.973
10	953	38.1	0.973
10	954	38.2	0.973
10	955	38.3	0.973
10	956	38.4	0.973
10	957	38.5	0.973
10	958	38.6	0.973
10	959	38.7	0.973
10	960	38.8	0.973
10	961	38.9	0.973
10	964	39	0.973
10	965	39.1	0.973
10	966	39.2	0.973
10	967	39.3	0.973
10	968	39.4	0.973
10	969	39.5	0.973
10	970	39.6	0.973
10	971	39.7	0.973
10	972	39.8	0.973
10	973	39.9	0.973
9	6	0.3	2.4479752470855
9	7	0.4	2.3290637582572
9	8	0.5	2.1818481258762
9	9	0.6	2.2357036410334
9	10	0.7	1.9855717337837
9	11	0.8	2.1556800054752
9	12	0.9	1.8177961522857
9	15	1	2.1703654659723
9	16	1.1	1.8999668675033
9	17	1.2	1.8135391334582
9	18	1.3	2.1003037793096
9	19	1.4	2.0311366270296
9	20	1.5	2.213205013168
9	21	1.6	1.4406950977165
9	22	1.7	2.5262731315568
9	23	1.8	1.3472384067252
9	24	1.9	2.2455468171276
9	27	2	2.1015260222834
9	28	2.1	1.979035354848
9	29	2.2	1.5707574565429
9	30	2.3	1.5441806555958
9	31	2.4	1.9124366020085
9	32	2.5	1.9760296771768
9	33	2.6	1.861542067118
9	34	2.7	2.0893797688885
9	35	2.8	1.3967243768042
9	36	2.9	1.5130976005224
9	39	3	2.5076531236758
9	40	3.1	2.16138498988
9	41	3.2	2.4867319139419
9	42	3.3	2.5737160811434
9	43	3.4	1.5175942043075
9	44	3.5	1.5883962160442
9	45	3.6	1.4689842111664
9	46	3.7	1.3277961542364
9	47	3.8	1.5610938670114
9	48	3.9	2.0000768283615
9	51	4	1.5853120716521
9	52	4.1	2.4462432491127
9	53	4.2	1.7681026779115
9	54	4.3	2.413640728849
9	55	4.4	1.3719304058002
9	56	4.5	1.9215971733676
9	57	4.6	2.0609394765459
9	58	4.7	2.2560777051607
9	59	4.8	1.5934962075436
9	60	4.9	2.0070045632543
9	63	5	1.8610358671751
9	64	5.1	2.5755732625723
9	65	5.2	1.7970738488948
9	66	5.3	1.8042755607981
9	67	5.4	1.7979858017527
9	68	5.5	1.3731275021331
9	69	5.6	1.7136336127995
9	70	5.7	2.1326397273224
9	71	5.8	2.0318584615365
9	72	5.9	1.6930794459535
9	75	6	2.5217068935512
9	76	6.1	1.7332032753387
9	77	6.2	1.7281707641901
9	78	6.3	2.1344021787401
9	79	6.4	2.1899431454483
9	80	6.5	2.1774386041798
9	81	6.6	2.0298180325888
9	82	6.7	1.3533659499604
9	83	6.8	2.3284602138447
9	84	6.9	1.3061105647124
9	87	7	2.2707209182903
9	88	7.1	1.9828932433389
9	89	7.2	2.1237779836318
9	90	7.3	-0.67051755650901
9	91	7.4	0.69754018457607
9	92	7.5	-1.0548045324627
9	93	7.6	0.16715116663836
9	94	7.7	0.25759127894418
9	95	7.8	0.68477199978661
9	96	7.9	-1.0167235876667
9	99	8	-0.12813790892251
9	100	8.1	0.68328243996948
9	101	8.2	0.53556285242085
9	102	8.3	-1.2225186239695
9	103	8.4	0.88848049053922
9	104	8.5	-0.51027728305197
9	105	8.6	0.35671765725128
9	106	8.7	0.25667311176656
9	107	8.8	-0.45471310988068
9	108	8.9	0.074922233750119
9	111	9	0.53953699145932
9	112	9.1	0.014076425158418
9	113	9.2	-0.306093408796
9	114	9.3	0.2428024208173
9	115	9.4	-0.20489069765899
9	116	9.5	-0.38623889465816
9	117	9.6	-0.31515522389672
9	118	9.7	0.1964605357265
9	119	9.8	-2.6793792807736
9	120	9.9	-2.8046588492938
9	123	10	-3.8719759732044
9	125	10.1	-4.5
9	126	10.2	-4.5
9	127	10.3	-4.5
9	128	10.4	-4.5
9	129	10.5	-4.5
9	130	10.6	-4.5
9	131	10.7	-4.5
9	132	10.8	-4.5
9	133	10.9	-4.5
9	136	11	-4.5
9	137	11.1	-4.5
9	138	11.2	-4.5
9	139	11.3	-4.5
9	140	11.4	-4.5
9	141	11.5	-4.5
9	142	11.6	-4.5
9	143	11.7	-4.5
9	144	11.8	-4.5
9	145	11.9	-4.5
9	148	12	-4.5
9	149	12.1	-4.5
9	150	12.2	-4.5
9	151	12.3	-4.5
9	152	12.4	-4.5
9	153	12.5	-4.5
9	154	12.6	-4.5
9	155	12.7	-4.5
9	156	12.8	-4.5
9	157	12.9	-2.6628243956327
9	160	13	0
9	161	13.1	0
9	162	13.2	0
9	163	13.3	0
9	164	13.4	0
9	165	13.5	0
9	166	13.6	0
9	167	13.7	0
9	168	13.8	0
9	169	13.9	0
9	172	14	0
9	173	14.1	0
9	174	14.2	0
9	175	14.3	0
9	176	14.4	0
9	177	14.5	0
9	178	14.6	0
9	179	14.7	0
9	180	14.8	0
9	181	14.9	0
9	184	15	0
9	185	15.1	0
9	186	15.2	0
9	187	15.3	0
9	188	15.4	0
9	189	15.5	0
9	190	15.6	0
9	191	15.7	0
9	192	15.8	0
9	193	15.9	0
9	196	16	0
9	197	16.1	0
9	198	16.2	0
9	199	16.3	0
9	200	16.4	0
9	201	16.5	0
9	202	16.6	0
9	203	16.7	0
9	204	16.8	0
9	205	16.9	0
9	208	17	0
9	209	17.1	0
9	210	17.2	0
9	211	17.3	0
9	212	17.4	0
9	213	17.5	0
9	214	17.6	0
9	215	17.7	0
9	216	17.8	0
9	217	17.9	0
9	220	18	0
9	221	18.1	0
9	222	18.2	0
9	223	18.3	0
9	224	18.4	0
9	225	18.5	0
9	226	18.6	0
9	227	18.7	0
9	228	18.8	0
9	229	18.9	0
9	232	19	0
9	233	19.1	0
9	234	19.2	0
9	235	19.3	0
9	236	19.4	0
9	237	19.5	0
9	238	19.6	0
9	239	19.7	0
9	240	19.8	0
9	241	19.9	0
9	244	20	0
9	245	20.1	0
9	246	20.2	0
9	247	20.3	0
9	248	20.4	0
9	249	20.5	0
9	250	20.6	0
9	251	20.7	0
9	252	20.8	0
9	253	20.9	0
9	256	21	0
9	257	21.1	0
9	258	21.2	0
9	259	21.3	0
9	260	21.4	0
9	261	21.5	0
9	262	21.6	0
9	263	21.7	0
9	264	21.8	0
9	265	21.9	0
9	268	22	0
9	269	22.1	0
9	270	22.2	0
9	271	22.3	0
9	272	22.4	0
9	273	22.5	0
9	274	22.6	0
9	713	22.7	0
9	714	22.8	0
9	715	22.9	0
9	718	23	0
9	719	23.1	0
9	720	23.2	0
9	721	23.3	0
9	722	23.4	0
9	723	23.5	0
9	724	23.6	0
9	779	23.7	0
9	780	23.8	0
9	781	23.9	0
9	784	24	0
9	785	24.1	0
9	786	24.2	0
9	787	24.3	0
9	788	24.4	0
9	789	24.5	0
9	790	24.6	0
9	791	24.7	0
9	792	24.8	0
9	793	24.9	0
9	796	25	0
9	797	25.1	0
9	798	25.2	0
9	799	25.3	0
9	800	25.4	0
9	801	25.5	0
9	802	25.6	0
9	803	25.7	0
9	804	25.8	0
9	805	25.9	0
9	808	26	0
9	809	26.1	0
9	810	26.2	0
9	811	26.3	0
9	812	26.4	0
9	813	26.5	0
9	814	26.6	0
9	815	26.7	0
9	816	26.8	0
9	817	26.9	0
9	820	27	0
9	821	27.1	0
9	822	27.2	0
9	823	27.3	0
9	824	27.4	0
9	825	27.5	0
9	826	27.6	0
9	827	27.7	0
9	828	27.8	0
9	829	27.9	0
9	832	28	0
9	833	28.1	0
9	834	28.2	0
9	835	28.3	0
9	836	28.4	0
9	837	28.5	0
9	838	28.6	0
9	839	28.7	0
9	840	28.8	0
9	841	28.9	0
9	844	29	0
9	845	29.1	0
9	846	29.2	0
9	847	29.3	0
9	848	29.4	0
9	849	29.5	0
9	850	29.6	0
9	851	29.7	0
9	852	29.8	0
9	853	29.9	0
9	856	30	0
9	857	30.1	0
9	858	30.2	0
9	859	30.3	0
9	860	30.4	0
9	861	30.5	0
9	862	30.6	0
9	863	30.7	0
9	864	30.8	0
9	865	30.9	0
9	868	31	0
9	869	31.1	0
9	870	31.2	0
9	871	31.3	0
9	872	31.4	0
9	873	31.5	0
9	874	31.6	0
9	875	31.7	0
9	876	31.8	0
9	877	31.9	0
9	880	32	0
9	881	32.1	0
9	882	32.2	0
9	883	32.3	0
9	884	32.4	0
9	885	32.5	0
9	886	32.6	0
9	887	32.7	0
9	888	32.8	0
9	889	32.9	0
9	892	33	0
9	893	33.1	0
9	894	33.2	0
9	895	33.3	0
9	896	33.4	0
9	897	33.5	0
9	898	33.6	0
9	899	33.7	0
9	900	33.8	0
9	901	33.9	0
9	904	34	0
9	905	34.1	0
9	906	34.2	0
9	907	34.3	0
9	908	34.4	0
9	909	34.5	0
9	910	34.6	0
9	911	34.7	0
9	912	34.8	0
9	913	34.9	0
9	916	35	0
9	917	35.1	0
9	918	35.2	0
9	919	35.3	0
9	920	35.4	0
9	921	35.5	0
9	922	35.6	0
9	923	35.7	0
9	924	35.8	0
9	925	35.9	0
9	928	36	0
9	929	36.1	0
9	930	36.2	0
9	931	36.3	0
9	932	36.4	0
9	933	36.5	0
9	934	36.6	0
9	935	36.7	0
9	936	36.8	0
9	937	36.9	0
9	940	37	0
9	941	37.1	0
9	942	37.2	0
9	943	37.3	0
9	944	37.4	0
9	945	37.5	0
9	946	37.6	0
9	947	37.7	0
9	948	37.8	0
9	949	37.9	0
9	952	38	0
9	953	38.1	0
9	954	38.2	0
9	955	38.3	0
9	956	38.4	0
9	957	38.5	0
9	958	38.6	0
9	959	38.7	0
9	960	38.8	0
9	961	38.9	0
9	964	39	0
9	965	39.1	0
9	966	39.2	0
9	967	39.3	0
9	968	39.4	0
9	969	39.5	0
9	970	39.6	0
9	971	39.7	0
9	972	39.8	0
9	973	39.9	0
8	5	0.2	0.25286542447004
8	6	0.3	0.49766294917859
8	7	0.4	0.73056932500431
8	8	0.5	0.94875413759194
8	9	0.6	1.1723245016953
8	10	0.7	1.3708816750736
8	11	0.8	1.5864496756212
8	12	0.9	1.7682292908497
8	15	1	1.985265837447
8	16	1.1	2.1752625241973
8	17	1.2	2.3566164375431
8	18	1.3	2.5666468154741
8	19	1.4	2.769760478177
8	20	1.5	2.9910809794938
8	21	1.6	3.1351504892655
8	22	1.7	3.3877778024212
8	23	1.8	3.5225016430937
8	24	1.9	3.7470563248065
8	27	2	3.9572089270348
8	28	2.1	4.1551124625196
8	29	2.2	4.3121882081739
8	30	2.3	4.4666062737335
8	31	2.4	4.6578499339343
8	32	2.5	4.855452901652
8	33	2.6	5.0416071083638
8	34	2.7	5.2505450852527
8	35	2.8	5.3902175229331
8	36	2.9	5.5415272829853
8	39	3	5.7922925953529
8	40	3.1	6.0084310943409
8	41	3.2	6.2571042857351
8	42	3.3	6.5144758938494
8	43	3.4	6.6662353142802
8	44	3.5	6.8250749358846
8	45	3.6	6.9719733570013
8	46	3.7	7.1047529724249
8	47	3.8	7.260862359126
8	48	3.9	7.4608700419622
8	51	4	7.6194012491274
8	52	4.1	7.8640255740387
8	53	4.2	8.0408358418298
8	54	4.3	8.2821999147147
8	55	4.4	8.4193929552947
8	56	4.5	8.6115526726315
8	57	4.6	8.8176466202861
8	58	4.7	9.0432543908022
8	59	4.8	9.2026040115565
8	60	4.9	9.403304467882
8	63	5	9.5894080545995
8	64	5.1	9.8469653808567
8	65	5.2	10.026672765746
8	66	5.3	10.207100321826
8	67	5.4	10.386898902001
8	68	5.5	10.524211652215
8	69	5.6	10.695575013495
8	70	5.7	10.908838986227
8	71	5.8	11.11202483238
8	72	5.9	11.281332776976
8	75	6	11.533503466331
8	76	6.1	11.706823793865
8	77	6.2	11.879640870284
8	78	6.3	12.093081088158
8	79	6.4	12.312075402703
8	80	6.5	12.529819263121
8	81	6.6	12.732801066379
8	82	6.7	12.868137661375
8	83	6.8	13.10098368276
8	84	6.9	13.231594739231
8	87	7	13.45866683106
8	88	7.1	13.656956155394
8	89	7.2	13.869333953757
8	90	7.3	13.802282198106
8	91	7.4	13.872036216564
8	92	7.5	13.766555763318
8	93	7.6	13.783270879982
8	94	7.7	13.809030007876
8	95	7.8	13.877507207855
8	96	7.9	13.775834849088
8	99	8	13.763021058196
8	100	8.1	13.831349302193
8	101	8.2	13.884905587435
8	102	8.3	13.762653725038
8	103	8.4	13.851501774092
8	104	8.5	13.800474045787
8	105	8.6	13.836145811512
8	106	8.7	13.861813122688
8	107	8.8	13.8163418117
8	108	8.9	13.823834035075
8	111	9	13.877787734221
8	112	9.1	13.879195376737
8	113	9.2	13.848586035857
8	114	9.3	13.872866277939
8	115	9.4	13.852377208173
8	116	9.5	13.813753318707
8	117	9.6	13.782237796318
8	118	9.7	13.80188384989
8	119	9.8	13.533945921813
8	120	9.9	13.253480036884
8	123	10	12.866282439563
8	125	10.1	12.416282439563
8	126	10.2	11.966282439563
8	127	10.3	11.516282439563
8	128	10.4	11.066282439563
8	129	10.5	10.616282439563
8	130	10.6	10.166282439563
8	131	10.7	9.7162824395633
8	132	10.8	9.2662824395633
8	133	10.9	8.8162824395633
8	136	11	8.3662824395633
8	137	11.1	7.9162824395633
8	138	11.2	7.4662824395633
8	139	11.3	7.0162824395633
8	140	11.4	6.5662824395633
8	141	11.5	6.1162824395633
8	142	11.6	5.6662824395633
8	143	11.7	5.2162824395633
8	144	11.8	4.7662824395633
8	145	11.9	4.3162824395633
8	148	12	3.8662824395633
8	149	12.1	3.4162824395633
8	150	12.2	2.9662824395633
8	151	12.3	2.5162824395633
8	152	12.4	2.0662824395633
8	153	12.5	1.6162824395633
8	154	12.6	1.1662824395633
8	155	12.7	0.71628243956327
8	156	12.8	0.26628243956327
8	157	12.9	0
8	160	13	0
8	161	13.1	0
8	162	13.2	0
8	163	13.3	0
8	164	13.4	0
8	165	13.5	0
8	166	13.6	0
8	167	13.7	0
8	168	13.8	0
8	169	13.9	0
8	172	14	0
8	173	14.1	0
8	174	14.2	0
8	175	14.3	0
8	176	14.4	0
8	177	14.5	0
8	178	14.6	0
8	179	14.7	0
8	180	14.8	0
8	181	14.9	0
8	184	15	0
8	185	15.1	0
8	186	15.2	0
8	187	15.3	0
8	188	15.4	0
8	189	15.5	0
8	190	15.6	0
8	191	15.7	0
8	192	15.8	0
8	193	15.9	0
8	196	16	0
8	197	16.1	0
8	198	16.2	0
8	199	16.3	0
8	200	16.4	0
8	201	16.5	0
8	202	16.6	0
8	203	16.7	0
8	204	16.8	0
8	205	16.9	0
8	208	17	0
8	209	17.1	0
8	210	17.2	0
8	211	17.3	0
8	212	17.4	0
8	213	17.5	0
8	214	17.6	0
8	215	17.7	0
8	216	17.8	0
8	217	17.9	0
8	220	18	0
8	221	18.1	0
8	222	18.2	0
8	223	18.3	0
8	224	18.4	0
8	225	18.5	0
8	226	18.6	0
8	227	18.7	0
8	228	18.8	0
8	229	18.9	0
8	232	19	0
8	233	19.1	0
8	234	19.2	0
8	235	19.3	0
8	236	19.4	0
8	237	19.5	0
8	238	19.6	0
8	239	19.7	0
8	240	19.8	0
8	241	19.9	0
8	244	20	0
8	245	20.1	0
8	246	20.2	0
8	247	20.3	0
8	248	20.4	0
8	249	20.5	0
8	250	20.6	0
8	251	20.7	0
8	252	20.8	0
8	253	20.9	0
8	256	21	0
8	257	21.1	0
8	258	21.2	0
8	259	21.3	0
8	260	21.4	0
8	261	21.5	0
8	262	21.6	0
8	263	21.7	0
8	264	21.8	0
8	265	21.9	0
8	268	22	0
8	269	22.1	0
8	270	22.2	0
8	271	22.3	0
8	272	22.4	0
8	273	22.5	0
8	274	22.6	0
8	713	22.7	0
8	714	22.8	0
8	715	22.9	0
8	718	23	0
8	719	23.1	0
8	720	23.2	0
8	721	23.3	0
8	722	23.4	0
8	723	23.5	0
8	724	23.6	0
8	779	23.7	0
8	780	23.8	0
8	781	23.9	0
8	784	24	0
8	785	24.1	0
8	786	24.2	0
8	787	24.3	0
8	788	24.4	0
8	789	24.5	0
8	790	24.6	0
8	791	24.7	0
8	792	24.8	0
8	793	24.9	0
8	796	25	0
8	797	25.1	0
8	798	25.2	0
8	799	25.3	0
8	800	25.4	0
8	801	25.5	0
8	802	25.6	0
8	803	25.7	0
8	804	25.8	0
8	805	25.9	0
8	808	26	0
8	809	26.1	0
8	810	26.2	0
8	811	26.3	0
8	812	26.4	0
8	813	26.5	0
8	814	26.6	0
8	815	26.7	0
8	816	26.8	0
8	817	26.9	0
8	820	27	0
8	821	27.1	0
8	822	27.2	0
8	823	27.3	0
8	824	27.4	0
8	825	27.5	0
8	826	27.6	0
8	827	27.7	0
8	828	27.8	0
8	829	27.9	0
8	832	28	0
8	833	28.1	0
8	834	28.2	0
8	835	28.3	0
8	836	28.4	0
8	837	28.5	0
8	838	28.6	0
8	839	28.7	0
8	840	28.8	0
8	841	28.9	0
8	844	29	0
8	845	29.1	0
8	846	29.2	0
8	847	29.3	0
8	848	29.4	0
8	849	29.5	0
8	850	29.6	0
8	851	29.7	0
8	852	29.8	0
8	853	29.9	0
8	856	30	0
8	857	30.1	0
8	858	30.2	0
8	859	30.3	0
8	860	30.4	0
8	861	30.5	0
8	862	30.6	0
8	863	30.7	0
8	864	30.8	0
8	865	30.9	0
8	868	31	0
8	869	31.1	0
8	870	31.2	0
8	871	31.3	0
8	872	31.4	0
8	873	31.5	0
8	874	31.6	0
8	875	31.7	0
8	876	31.8	0
8	877	31.9	0
8	880	32	0
8	881	32.1	0
8	882	32.2	0
8	883	32.3	0
8	884	32.4	0
8	885	32.5	0
8	886	32.6	0
8	887	32.7	0
8	888	32.8	0
8	889	32.9	0
8	892	33	0
8	893	33.1	0
8	894	33.2	0
8	895	33.3	0
8	896	33.4	0
8	897	33.5	0
8	898	33.6	0
8	899	33.7	0
8	900	33.8	0
8	901	33.9	0
8	904	34	0
8	905	34.1	0
8	906	34.2	0
8	907	34.3	0
8	908	34.4	0
8	909	34.5	0
8	910	34.6	0
8	911	34.7	0
8	912	34.8	0
8	913	34.9	0
8	916	35	0
8	917	35.1	0
8	918	35.2	0
8	919	35.3	0
8	920	35.4	0
8	921	35.5	0
8	922	35.6	0
8	923	35.7	0
8	924	35.8	0
8	925	35.9	0
8	928	36	0
8	929	36.1	0
8	930	36.2	0
8	931	36.3	0
8	932	36.4	0
8	933	36.5	0
8	934	36.6	0
8	935	36.7	0
8	936	36.8	0
8	937	36.9	0
8	940	37	0
8	941	37.1	0
8	942	37.2	0
8	943	37.3	0
8	944	37.4	0
8	945	37.5	0
8	946	37.6	0
8	947	37.7	0
8	948	37.8	0
8	949	37.9	0
8	952	38	0
8	953	38.1	0
8	954	38.2	0
8	955	38.3	0
8	956	38.4	0
8	957	38.5	0
8	958	38.6	0
8	959	38.7	0
8	960	38.8	0
8	961	38.9	0
8	964	39	0
8	965	39.1	0
8	966	39.2	0
8	967	39.3	0
8	968	39.4	0
8	969	39.5	0
8	970	39.6	0
8	971	39.7	0
8	972	39.8	0
8	973	39.9	0
7	4	0.1	1578.9478335427
7	5	0.2	1578.9478335427
7	6	0.3	1578.9565491369
7	7	0.4	1578.9737022473
7	8	0.5	1578.9988830173
7	9	0.6	1579.0315840337
7	10	0.7	1579.071990923
7	11	0.8	1579.1192415459
7	12	0.9	1579.1739222221
7	15	1	1579.2348683542
7	16	1.1	1579.303295156
7	17	1.2	1579.3782706345
7	18	1.3	1579.4594968976
7	19	1.4	1579.5479623461
7	20	1.5	1579.643428579
7	21	1.6	1579.7465231372
7	22	1.7	1579.8545833863
7	23	1.8	1579.9713510228
7	24	1.9	1580.092762229
7	27	2	1580.2219132353
7	28	2.1	1580.3583076382
7	29	2.2	1580.5015232479
7	30	2.3	1580.6501528369
7	31	2.4	1580.8041048041
7	32	2.5	1580.9646484293
7	33	2.6	1581.1341349548
7	34	2.7	1581.4928819863
7	35	2.8	1581.8664964745
7	36	2.9	1582.250049674
7	39	3	1582.6443696627
7	40	3.1	1583.0565334288
7	41	3.2	1583.4840770215
7	42	3.3	1583.9293155214
7	43	3.4	1584.3928678846
7	44	3.5	1584.8672190337
7	45	3.6	1585.3528727787
7	46	3.7	1585.8489794144
7	47	3.8	1586.354534287
7	48	3.9	1586.871197477
7	51	4	1587.4020926701
7	52	4.1	1587.9442685116
7	53	4.2	1588.5038511539
7	54	4.3	1589.0760151334
7	55	4.4	1589.6653539231
7	56	4.5	1590.2644549962
7	57	4.6	1590.8772296309
7	58	4.7	1591.5046693496
7	59	4.8	1592.148162703
7	60	4.9	1592.8029949414
7	63	5	1593.4721084777
7	64	5.1	1594.1544646388
7	65	5.2	1594.8551478777
7	66	5.3	1595.568618604
7	67	5.4	1596.2949280646
7	68	5.5	1597.034031502
7	69	5.6	1597.7829057407
7	70	5.7	1598.543973729
7	71	5.8	1599.3202170022
7	72	5.9	1600.110918426
7	75	6	1600.9136673417
7	76	6.1	1601.7343600374
7	77	6.2	1602.567385735
7	78	6.3	1603.4127086252
7	79	6.4	1604.2732193405
7	80	6.5	1605.149313095
7	81	6.6	1606.0409009093
7	82	6.7	1606.9469323559
7	83	6.8	1607.8625939852
7	84	6.9	1608.7948243041
7	87	7	1609.7363485498
7	88	7.1	1610.6940306276
7	89	7.2	1611.6658224333
7	90	7.3	1612.6527264649
7	91	7.4	1613.634859276
7	92	7.5	1614.6219555931
7	93	7.6	1615.6015462084
7	94	7.7	1616.5823262259
7	95	7.8	1617.5649391925
7	96	7.9	1618.5524248108
7	99	8	1619.5326757003
7	100	8.1	1620.512014796
7	101	8.2	1621.4962159423
7	102	8.3	1622.4842280094
7	103	8.4	1623.4635409657
7	104	8.5	1624.4491761085
7	105	8.6	1625.4311802564
7	106	8.7	1626.4157227101
7	107	8.8	1627.4020915795
7	108	8.9	1628.3852248341
7	111	9	1629.368891215
7	112	9.1	1630.3563967953
7	113	9.2	1631.3440025384
7	114	9.3	1632.3294302039
7	115	9.4	1633.3165855864
7	116	9.5	1634.3022830216
7	117	9.6	1635.2852320867
7	118	9.7	1636.2659385931
7	119	9.8	1637.2480430584
7	120	9.9	1638.2110817907
7	123	10	1639.1541633354
7	125	10.1	1640.0696929526
7	126	10.2	1640.9532017959
7	127	10.3	1641.8046898646
7	128	10.4	1642.6241571587
7	129	10.5	1643.411603678
7	130	10.6	1644.1670294236
7	131	10.7	1644.8904343946
7	132	10.8	1645.5818185909
7	133	10.9	1646.2411820125
7	136	11	1646.9091904527
7	137	11.1	1647.5684691528
7	138	11.2	1648.1922870101
7	139	11.3	1648.7806440275
7	140	11.4	1649.3335402021
7	141	11.5	1649.8509755358
7	142	11.6	1650.3329500286
7	143	11.7	1650.7794636795
7	144	11.8	1651.1905164896
7	145	11.9	1651.5661084577
7	148	12	1651.9062395841
7	149	12.1	1652.2109098695
7	150	12.2	1652.480119314
7	151	12.3	1652.7138679167
7	152	12.4	1652.9121556776
7	153	12.5	1653.0749825975
7	154	12.6	1653.2023486756
7	155	12.7	1653.2942539128
7	156	12.8	1653.3506983081
7	157	12.9	1653.3716818625
7	160	13	1653.3716818625
7	161	13.1	1653.3716818625
7	162	13.2	1653.3716818625
7	163	13.3	1653.3716818625
7	164	13.4	1653.3716818625
7	165	13.5	1653.3716818625
7	166	13.6	1653.3716818625
7	167	13.7	1653.3716818625
7	168	13.8	1653.3716818625
7	169	13.9	1653.3716818625
7	172	14	1653.3716818625
7	173	14.1	1653.3716818625
7	174	14.2	1653.3716818625
7	175	14.3	1653.3716818625
7	176	14.4	1653.3716818625
7	177	14.5	1653.3716818625
7	178	14.6	1653.3716818625
7	179	14.7	1653.3716818625
7	180	14.8	1653.3716818625
7	181	14.9	1653.3716818625
7	184	15	1653.3716818625
7	185	15.1	1653.3716818625
7	186	15.2	1653.3716818625
7	187	15.3	1653.3716818625
7	188	15.4	1653.3716818625
7	189	15.5	1653.3716818625
7	190	15.6	1653.3716818625
7	191	15.7	1653.3716818625
7	192	15.8	1653.3716818625
7	193	15.9	1653.3716818625
7	196	16	1653.3716818625
7	197	16.1	1653.3716818625
7	198	16.2	1653.3716818625
7	199	16.3	1653.3716818625
7	200	16.4	1653.3716818625
7	201	16.5	1653.3716818625
7	202	16.6	1653.3716818625
7	203	16.7	1653.3716818625
7	204	16.8	1653.3716818625
7	205	16.9	1653.3716818625
7	208	17	1653.3716818625
7	209	17.1	1653.3716818625
7	210	17.2	1653.3716818625
7	211	17.3	1653.3716818625
7	212	17.4	1653.3716818625
7	213	17.5	1653.3716818625
7	214	17.6	1653.3716818625
7	215	17.7	1653.3716818625
7	216	17.8	1653.3716818625
7	217	17.9	1653.3716818625
7	220	18	1653.3716818625