file 384444 1470679551                                          
version 2
run General-0-20160808-14:05:49-8827
attr configname General
attr datetime 20160808-14:05:49
attr experiment General
attr inifile _defaults.ini
attr iterationvars ""
attr iterationvars2 $repetition=0
attr measurement ""
attr network vanets.src.RSUScenario
attr processid 8827
attr repetition 0
attr replication #0
attr resultdir results
attr runnumber 0
attr seedset 0

vector 6  RSUScenario.node[0].veinsmobility  posx  ETV
vector 7  RSUScenario.node[0].veinsmobility  posy  ETV
vector 8  RSUScenario.node[0].veinsmobility  speed  ETV
vector 9  RSUScenario.node[0].veinsmobility  acceleration  ETV
vector 10  RSUScenario.node[0].veinsmobility  co2emission  ETV
vector 13  RSUScenario.node[1].veinsmobility  posx  ETV
vector 14  RSUScenario.node[1].veinsmobility  posy  ETV
vector 15  RSUScenario.node[1].veinsmobility  speed  ETV
vector 16  RSUScenario.node[1].veinsmobility  acceleration  ETV
vector 17  RSUScenario.node[1].veinsmobility  co2emission  ETV
vector 20  RSUScenario.node[2].veinsmobility  posx  ETV
vector 21  RSUScenario.node[2].veinsmobility  posy  ETV
vector 22  RSUScenario.node[2].veinsmobility  speed  ETV
vector 23  RSUScenario.node[2].veinsmobility  acceleration  ETV
vector 24  RSUScenario.node[2].veinsmobility  co2emission  ETV
vector 27  RSUScenario.node[3].veinsmobility  posx  ETV
vector 28  RSUScenario.node[3].veinsmobility  posy  ETV
vector 29  RSUScenario.node[3].veinsmobility  speed  ETV
vector 30  RSUScenario.node[3].veinsmobility  acceleration  ETV
vector 31  RSUScenario.node[3].veinsmobility  co2emission  ETV
vector 34  RSUScenario.node[4].veinsmobility  posx  ETV
vector 35  RSUScenario.node[4].veinsmobility  posy  ETV
vector 36  RSUScenario.node[4].veinsmobility  speed  ETV
vector 37  RSUScenario.node[4].veinsmobility  acceleration  ETV
vector 38  RSUScenario.node[4].veinsmobility  co2emission  ETV
vector 41  RSUScenario.node[5].veinsmobility  posx  ETV
vector 42  RSUScenario.node[5].veinsmobility  posy  ETV
vector 43  RSUScenario.node[5].veinsmobility  speed  ETV
vector 44  RSUScenario.node[5].veinsmobility  acceleration  ETV
vector 45  RSUScenario.node[5].veinsmobility  co2emission  ETV
vector 48  RSUScenario.node[6].veinsmobility  posx  ETV
vector 49  RSUScenario.node[6].veinsmobility  posy  ETV
vector 50  RSUScenario.node[6].veinsmobility  speed  ETV
vector 51  RSUScenario.node[6].veinsmobility  acceleration  ETV
vector 52  RSUScenario.node[6].veinsmobility  co2emission  ETV
vector 55  RSUScenario.node[7].veinsmobility  posx  ETV
vector 56  RSUScenario.node[7].veinsmobility  posy  ETV
vector 57  RSUScenario.node[7].veinsmobility  speed  ETV
vector 58  RSUScenario.node[7].veinsmobility  acceleration  ETV
vector 59  RSUScenario.node[7].veinsmobility  co2emission  ETV
vector 62  RSUScenario.node[8].veinsmobility  posx  ETV
vector 63  RSUScenario.node[8].veinsmobility  posy  ETV
vector 64  RSUScenario.node[8].veinsmobility  speed  ETV
vector 65  RSUScenario.node[8].veinsmobility  acceleration  ETV
vector 66  RSUScenario.node[8].veinsmobility  co2emission  ETV
vector 69  RSUScenario.node[9].veinsmobility  posx  ETV
vector 70  RSUScenario.node[9].veinsmobility  posy  ETV
vector 71  RSUScenario.node[9].veinsmobility  speed  ETV
vector 72  RSUScenario.node[9].veinsmobility  acceleration  ETV
vector 73  RSUScenario.node[9].veinsmobility  co2emission  ETV
vector 76  RSUScenario.node[10].veinsmobility  posx  ETV
vector 77  RSUScenario.node[10].veinsmobility  posy  ETV
vector 78  RSUScenario.node[10].veinsmobility  speed  ETV
vector 79  RSUScenario.node[10].veinsmobility  acceleration  ETV
vector 80  RSUScenario.node[10].veinsmobility  co2emission  ETV
vector 83  RSUScenario.node[11].veinsmobility  posx  ETV
vector 84  RSUScenario.node[11].veinsmobility  posy  ETV
vector 85  RSUScenario.node[11].veinsmobility  speed  ETV
vector 86  RSUScenario.node[11].veinsmobility  acceleration  ETV
vector 87  RSUScenario.node[11].veinsmobility  co2emission  ETV
vector 90  RSUScenario.node[12].veinsmobility  posx  ETV
vector 91  RSUScenario.node[12].veinsmobility  posy  ETV
vector 92  RSUScenario.node[12].veinsmobility  speed  ETV
vector 93  RSUScenario.node[12].veinsmobility  acceleration  ETV
vector 94  RSUScenario.node[12].veinsmobility  co2emission  ETV
vector 97  RSUScenario.node[13].veinsmobility  posx  ETV
vector 98  RSUScenario.node[13].veinsmobility  posy  ETV
vector 99  RSUScenario.node[13].veinsmobility  speed  ETV
vector 100  RSUScenario.node[13].veinsmobility  acceleration  ETV
vector 101  RSUScenario.node[13].veinsmobility  co2emission  ETV
10	4542 7740 6 973 0.3 39.9 397 0.973 9.3496226877566 694.19824628418 2467.1913586109
9	12282 6403 6 973 0.3 39.9 397 -4.5 2.5755732625723 -2.5286542447005 885.69476925889
8	18685 6687 5 973 0.2 39.9 398 0 13.884905587435 1069.1687709272 11501.953197926
7	25372 10491 4 973 0.1 39.9 399 1578.9478335427 1653.3716818625 654160.70298856 1072749166.006
6	35863 10496 4 973 0.1 39.9 399 2337.6743397007 2413.5228035761 938097.3364618 2205823411.8029
17	46359 9248 42 973 3.3 39.9 367 0.973 9.4720801065986 672.40657773544 2359.198898815
16	55607 11155 42 973 3.3 39.9 367 -4.4655106357978 2.5878362877294 -2.5157376556475 645.33232121146
15	66762 10868 41 973 3.2 39.9 368 4.0002965811431e-11 13.874893751706 994.15877092686 9656.5597827124
14	77630 10107 40 973 3.1 39.9 369 1578.9478335427 1647.4607536085 602986.08796858 985544162.32169
13	87737 10109 40 973 3.1 39.9 369 2342.2916909503 2413.5228035761 869205.74489421 2047676253.4344
80	97846 2055 859 973 30.3 39.9 97 0.973 5.9107947174314 172.83426557963 478.24538005926
79	99901 2778 859 973 30.3 39.9 97 -2.8545373697441 2.5967676749988 0.077476948266528 264.20355637321
78	102679 2740 858 973 30.2 39.9 98 0.25212574459263 7.3662378855759 316.16179268272 1487.6229126173
77	105419 2738 857 973 30.1 39.9 99 1578.9478335427 1599.1036701528 157423.47045426 250330550.76068
76	108157 2744 857 973 30.1 39.9 99 2389.8345756582 2413.5228035761 237532.49692483 569923174.86291
87	110901 1476 895 973 33.3 39.9 67 0.973 4.8546675957264 122.39591517146 314.5437047303
86	112377 1907 895 973 33.3 39.9 67 -2.5226007064296 2.583505208854 9.1859134151785 204.34407700945
85	114284 1883 894 973 33.2 39.9 68 0.25846435284638 6.2295754026937 228.59529365129 939.93895708409
84	116167 1913 893 973 33.1 39.9 69 1578.9478335427 1592.8074123757 109381.15721858 173396505.27211
83	118080 1912 893 973 33.1 39.9 69 2396.050877898 2413.5228035761 165906.37058603 398914514.84719
94	119992 878 931 973 36.3 39.9 37 0.973 3.737309765589 71.137975013347 169.06033016409
93	120870 1050 931 973 36.3 39.9 37 -2.2435420363117 2.5993617061054 27.191920448663 123.79756959929
92	121920 1055 930 973 36.2 39.9 38 0.25493586944463 4.8206017082368 118.39861282596 430.65840124748
91	122975 1084 929 973 36.1 39.9 39 1578.9478335427 1584.8382419208 61656.413599411 97474840.428527
90	124059 1082 929 973 36.1 39.9 39 2403.9188486671 2413.5228035761 93966.697010044 226404017.20467
101	125141 202 967 973 39.3 39.9 7 1.4131435452938 2.2955306386159 12.878801748303 24.241327424683
100	125343 202 967 973 39.3 39.9 7 1.9372976896754 2.4940672882967 16.383332359629 38.551589825827
99	125545 228 966 973 39.2 39.9 8 0.25405705494387 1.8923902909068 8.6523420717136 11.674301425336
98	125773 251 965 973 39.1 39.9 9 1578.9478335427 1579.1808309937 14211.234402248 22439909.304807
97	126024 249 965 973 39.1 39.9 9 2412.8882699095 2413.5228035761 21719.788264951 52416578.448802
24	126273 8408 78 973 6.3 39.9 337 0.973 10.397915429126 626.44067993354 2318.4526013921
23	134681 10232 78 973 6.3 39.9 337 -3.5824194923188 2.5938958732877 -2.5726502499818 588.69880125182
22	144913 9980 77 973 6.2 39.9 338 1.7001847712892e-09 13.882936061814 919.14877091146 8282.7732798435
21	154893 9334 76 973 6.1 39.9 339 1578.9478335427 1642.0290731937 552262.92039679 899847069.76639
20	164227 9329 76 973 6.1 39.9 339 2347.4542779507 2413.5228035761 800179.58438376 1888914460.0432
31	173556 7624 114 973 9.3 39.9 307 0.973 9.3019959967551 564.86176081669 2009.5687637186
30	181180 9313 114 973 9.3 39.9 307 -3.4857415700054 2.5731536938343 -2.4904951846232 536.75891016867
29	190493 9090 113 973 9.2 39.9 308 3.4508713530265e-08 13.126661577776 844.13877058343 7162.3765868208
28	199583 8551 112 973 9.1 39.9 309 1578.9478335427 1636.6915658554 501819.55964345 815087355.62435
27	208134 8544 112 973 9.1 39.9 309 2352.7240048253 2413.5228035761 730924.4151491 1729095287.4004
38	216678 6821 151 973 12.3 39.9 277 0.973 8.7987696629388 503.87402156162 1721.9830202778
37	223499 8367 151 973 12.3 39.9 277 -3.3004776174898 2.588163960375 -2.5788704585815 498.21091389074
36	231866 8177 150 973 12.2 39.9 278 5.4603423843531e-07 12.335527663514 769.12876557671 6146.5780234419
35	240043 7714 149 973 12.1 39.9 279 1578.9478335427 1631.3540581502 451744.78668334 731542681.16515
34	247757 7734 149 973 12.1 39.9 279 2357.9937320625 2413.5228035761 661303.88450636 1567565055.2735
45	255491 6005 187 973 15.3 39.9 247 0.973 8.5929335834623 447.48184874327 1461.6670753384
44	261496 7412 187 973 15.3 39.9 247 -3.1804877440205 2.5879879088374 -2.4973999798929 457.2409035782
43	268908 7242 186 973 15.2 39.9 248 6.3895324469741e-06 11.616203796647 694.11870416249 5199.1641585556
42	276150 6893 185 973 15.1 39.9 249 1578.9478335427 1626.016546051 401966.84785954 648977028.7128
41	283043 6902 185 973 15.1 39.9 249 2363.263463637 2413.5228035761 591389.70672766 1404660198.4774
52	289945 5178 223 973 18.3 39.9 217 0.973 8.2718695470694 391.63910086956 1255.4734429431
51	295123 6458 223 973 18.3 39.9 217 -3.3980848877737 2.5648973016491 -2.4874311178674 427.2837924758
50	301581 6314 222 973 18.2 39.9 218 6.9722984143209e-05 10.901878934995 619.10806562301 4357.9831566049
49	307895 6067 221 973 18.1 39.9 219 1578.9478335427 1620.6789887957 352478.78637726 567363532.70108
48	313962 6067 221 973 18.1 39.9 219 2368.5332397955 2413.5228035761 521191.12176211 1240420478.0201
59	320029 4385 259 973 21.3 39.9 187 0.973 7.5343999394711 335.20714422562 1018.5327430455
58	324414 5505 259 973 21.3 39.9 187 -2.9747226594893 2.5679940565489 -2.4855870240993 384.79330864483
57	329919 5393 258 973 21.2 39.9 188 0.00063154537792508 10.070558115304 544.09228653769 3527.6260299891
56	335312 5235 257 973 21.1 39.9 189 1578.9478335427 1615.341030281 303258.54253086 486626699.55571
55	340547 5237 257 973 21.1 39.9 189 2373.8034121168 2413.5228035761 450727.44481388 1074933296.8295
66	345784 3576 787 973 24.3 39.9 157 0.973 6.6509996604707 281.34056874113 831.65040722707
65	349360 4575 787 973 24.3 39.9 157 -3.115209251642 2.5698016520993 -2.4215806523867 344.59143561721
64	353935 4484 786 973 24.2 39.9 158 0.0053259206768727 9.267943583463 469.03320210534 2774.8109701559
63	358419 4407 785 973 24.1 39.9 159 1578.9478335427 1609.9996962156 254341.0540843 406873949.02126
62	362826 4405 785 973 24.1 39.9 159 2379.0769171242 2413.5228035761 379965.3268723 908035095.12257
73	367231 2796 823 973 27.3 39.9 127 0.973 5.5857158189483 224.35264066485 606.00355224162
72	370027 3664 823 973 27.3 39.9 127 -2.8380187562492 2.5937975323518 -2.0871201972265 293.8892576479
71	373691 3604 822 973 27.2 39.9 128 0.041202538453762 8.244793664971 393.64408450265 2081.8507587078
70	377295 3577 821 973 27.1 39.9 129 1578.9478335427 1604.6326590441 205730.64063485 328114199.32849
69	380872 3572 821 973 27.1 39.9 129 2384.3757988354 2413.5228035761 308899.07549847 739693832.40456
