version 2
run nodebug-0-20150401-14:08:45-26203
attr configname nodebug
attr datetime 20150401-14:08:45
attr experiment nodebug
attr inifile omnetpp.ini
attr iterationvars ""
attr iterationvars2 $repetition=0
attr measurement ""
attr network RSUScenario
attr processid 26203
attr repetition 0
attr replication #0
attr resultdir results
attr runnumber 0
attr seedset 0

vector 4  RSUScenario.node[0].veinsmobility  posx  ETV
vector 5  RSUScenario.node[0].veinsmobility  posy  ETV
vector 6  RSUScenario.node[0].veinsmobility  speed  ETV
vector 7  RSUScenario.node[0].veinsmobility  acceleration  ETV
vector 8  RSUScenario.node[0].veinsmobility  co2emission  ETV
vector 11  RSUScenario.node[1].veinsmobility  posx  ETV
vector 12  RSUScenario.node[1].veinsmobility  posy  ETV
vector 13  RSUScenario.node[1].veinsmobility  speed  ETV
vector 14  RSUScenario.node[1].veinsmobility  acceleration  ETV
vector 15  RSUScenario.node[1].veinsmobility  co2emission  ETV
vector 18  RSUScenario.node[2].veinsmobility  posx  ETV
vector 19  RSUScenario.node[2].veinsmobility  posy  ETV
vector 20  RSUScenario.node[2].veinsmobility  speed  ETV
vector 21  RSUScenario.node[2].veinsmobility  acceleration  ETV
vector 22  RSUScenario.node[2].veinsmobility  co2emission  ETV
vector 25  RSUScenario.node[3].veinsmobility  posx  ETV
vector 26  RSUScenario.node[3].veinsmobility  posy  ETV
vector 27  RSUScenario.node[3].veinsmobility  speed  ETV
vector 28  RSUScenario.node[3].veinsmobility  acceleration  ETV
vector 29  RSUScenario.node[3].veinsmobility  co2emission  ETV
vector 32  RSUScenario.node[4].veinsmobility  posx  ETV
vector 33  RSUScenario.node[4].veinsmobility  posy  ETV
vector 34  RSUScenario.node[4].veinsmobility  speed  ETV
vector 35  RSUScenario.node[4].veinsmobility  acceleration  ETV
vector 36  RSUScenario.node[4].veinsmobility  co2emission  ETV
vector 39  RSUScenario.node[5].veinsmobility  posx  ETV
vector 40  RSUScenario.node[5].veinsmobility  posy  ETV
vector 41  RSUScenario.node[5].veinsmobility  speed  ETV
vector 42  RSUScenario.node[5].veinsmobility  acceleration  ETV
vector 43  RSUScenario.node[5].veinsmobility  co2emission  ETV
vector 46  RSUScenario.node[6].veinsmobility  posx  ETV
vector 47  RSUScenario.node[6].veinsmobility  posy  ETV
vector 48  RSUScenario.node[6].veinsmobility  speed  ETV
vector 49  RSUScenario.node[6].veinsmobility  acceleration  ETV
vector 50  RSUScenario.node[6].veinsmobility  co2emission  ETV
vector 53  RSUScenario.node[7].veinsmobility  posx  ETV
vector 54  RSUScenario.node[7].veinsmobility  posy  ETV
vector 55  RSUScenario.node[7].veinsmobility  speed  ETV
vector 56  RSUScenario.node[7].veinsmobility  acceleration  ETV
vector 57  RSUScenario.node[7].veinsmobility  co2emission  ETV
vector 60  RSUScenario.node[8].veinsmobility  posx  ETV
vector 61  RSUScenario.node[8].veinsmobility  posy  ETV
vector 62  RSUScenario.node[8].veinsmobility  speed  ETV
vector 63  RSUScenario.node[8].veinsmobility  acceleration  ETV
vector 64  RSUScenario.node[8].veinsmobility  co2emission  ETV
vector 67  RSUScenario.node[9].veinsmobility  posx  ETV
vector 68  RSUScenario.node[9].veinsmobility  posy  ETV
vector 69  RSUScenario.node[9].veinsmobility  speed  ETV
vector 70  RSUScenario.node[9].veinsmobility  acceleration  ETV
vector 71  RSUScenario.node[9].veinsmobility  co2emission  ETV
vector 74  RSUScenario.node[10].veinsmobility  posx  ETV
vector 75  RSUScenario.node[10].veinsmobility  posy  ETV
vector 76  RSUScenario.node[10].veinsmobility  speed  ETV
vector 77  RSUScenario.node[10].veinsmobility  acceleration  ETV
vector 78  RSUScenario.node[10].veinsmobility  co2emission  ETV
vector 81  RSUScenario.node[11].veinsmobility  posx  ETV
vector 82  RSUScenario.node[11].veinsmobility  posy  ETV
vector 83  RSUScenario.node[11].veinsmobility  speed  ETV
vector 84  RSUScenario.node[11].veinsmobility  acceleration  ETV
vector 85  RSUScenario.node[11].veinsmobility  co2emission  ETV
vector 88  RSUScenario.node[12].veinsmobility  posx  ETV
vector 89  RSUScenario.node[12].veinsmobility  posy  ETV
vector 90  RSUScenario.node[12].veinsmobility  speed  ETV
vector 91  RSUScenario.node[12].veinsmobility  acceleration  ETV
vector 92  RSUScenario.node[12].veinsmobility  co2emission  ETV
vector 95  RSUScenario.node[13].veinsmobility  posx  ETV
vector 96  RSUScenario.node[13].veinsmobility  posy  ETV
vector 97  RSUScenario.node[13].veinsmobility  speed  ETV
vector 98  RSUScenario.node[13].veinsmobility  acceleration  ETV
vector 99  RSUScenario.node[13].veinsmobility  co2emission  ETV
vector 102  RSUScenario.node[14].veinsmobility  posx  ETV
vector 103  RSUScenario.node[14].veinsmobility  posy  ETV
vector 104  RSUScenario.node[14].veinsmobility  speed  ETV
vector 105  RSUScenario.node[14].veinsmobility  acceleration  ETV
vector 106  RSUScenario.node[14].veinsmobility  co2emission  ETV
vector 109  RSUScenario.node[15].veinsmobility  posx  ETV
vector 110  RSUScenario.node[15].veinsmobility  posy  ETV
vector 111  RSUScenario.node[15].veinsmobility  speed  ETV
vector 112  RSUScenario.node[15].veinsmobility  acceleration  ETV
vector 113  RSUScenario.node[15].veinsmobility  co2emission  ETV
vector 116  RSUScenario.node[16].veinsmobility  posx  ETV
vector 117  RSUScenario.node[16].veinsmobility  posy  ETV
vector 118  RSUScenario.node[16].veinsmobility  speed  ETV
vector 119  RSUScenario.node[16].veinsmobility  acceleration  ETV
vector 120  RSUScenario.node[16].veinsmobility  co2emission  ETV
vector 123  RSUScenario.node[17].veinsmobility  posx  ETV
vector 124  RSUScenario.node[17].veinsmobility  posy  ETV
vector 125  RSUScenario.node[17].veinsmobility  speed  ETV
vector 126  RSUScenario.node[17].veinsmobility  acceleration  ETV
vector 127  RSUScenario.node[17].veinsmobility  co2emission  ETV
vector 130  RSUScenario.node[18].veinsmobility  posx  ETV
vector 131  RSUScenario.node[18].veinsmobility  posy  ETV
vector 132  RSUScenario.node[18].veinsmobility  speed  ETV
vector 133  RSUScenario.node[18].veinsmobility  acceleration  ETV
vector 134  RSUScenario.node[18].veinsmobility  co2emission  ETV
vector 137  RSUScenario.node[19].veinsmobility  posx  ETV
vector 138  RSUScenario.node[19].veinsmobility  posy  ETV
vector 139  RSUScenario.node[19].veinsmobility  speed  ETV
vector 140  RSUScenario.node[19].veinsmobility  acceleration  ETV
vector 141  RSUScenario.node[19].veinsmobility  co2emission  ETV
vector 144  RSUScenario.node[20].veinsmobility  posx  ETV
vector 145  RSUScenario.node[20].veinsmobility  posy  ETV
vector 146  RSUScenario.node[20].veinsmobility  speed  ETV
vector 147  RSUScenario.node[20].veinsmobility  acceleration  ETV
vector 148  RSUScenario.node[20].veinsmobility  co2emission  ETV
vector 151  RSUScenario.node[21].veinsmobility  posx  ETV
vector 152  RSUScenario.node[21].veinsmobility  posy  ETV
vector 153  RSUScenario.node[21].veinsmobility  speed  ETV
vector 154  RSUScenario.node[21].veinsmobility  acceleration  ETV
vector 155  RSUScenario.node[21].veinsmobility  co2emission  ETV
vector 158  RSUScenario.node[22].veinsmobility  posx  ETV
vector 159  RSUScenario.node[22].veinsmobility  posy  ETV
vector 160  RSUScenario.node[22].veinsmobility  speed  ETV
vector 161  RSUScenario.node[22].veinsmobility  acceleration  ETV
vector 162  RSUScenario.node[22].veinsmobility  co2emission  ETV
vector 165  RSUScenario.node[23].veinsmobility  posx  ETV
vector 166  RSUScenario.node[23].veinsmobility  posy  ETV
vector 167  RSUScenario.node[23].veinsmobility  speed  ETV
vector 168  RSUScenario.node[23].veinsmobility  acceleration  ETV
vector 169  RSUScenario.node[23].veinsmobility  co2emission  ETV
vector 172  RSUScenario.node[24].veinsmobility  posx  ETV
vector 173  RSUScenario.node[24].veinsmobility  posy  ETV
vector 174  RSUScenario.node[24].veinsmobility  speed  ETV
vector 175  RSUScenario.node[24].veinsmobility  acceleration  ETV
vector 176  RSUScenario.node[24].veinsmobility  co2emission  ETV
vector 179  RSUScenario.node[25].veinsmobility  posx  ETV
vector 180  RSUScenario.node[25].veinsmobility  posy  ETV
vector 181  RSUScenario.node[25].veinsmobility  speed  ETV
vector 182  RSUScenario.node[25].veinsmobility  acceleration  ETV
vector 183  RSUScenario.node[25].veinsmobility  co2emission  ETV
vector 186  RSUScenario.node[26].veinsmobility  posx  ETV
vector 187  RSUScenario.node[26].veinsmobility  posy  ETV
vector 188  RSUScenario.node[26].veinsmobility  speed  ETV
vector 189  RSUScenario.node[26].veinsmobility  acceleration  ETV
vector 190  RSUScenario.node[26].veinsmobility  co2emission  ETV
vector 193  RSUScenario.node[27].veinsmobility  posx  ETV
vector 194  RSUScenario.node[27].veinsmobility  posy  ETV
vector 195  RSUScenario.node[27].veinsmobility  speed  ETV
vector 196  RSUScenario.node[27].veinsmobility  acceleration  ETV
vector 197  RSUScenario.node[27].veinsmobility  co2emission  ETV
vector 200  RSUScenario.node[28].veinsmobility  posx  ETV
vector 201  RSUScenario.node[28].veinsmobility  posy  ETV
vector 202  RSUScenario.node[28].veinsmobility  speed  ETV
vector 203  RSUScenario.node[28].veinsmobility  acceleration  ETV
vector 204  RSUScenario.node[28].veinsmobility  co2emission  ETV
vector 207  RSUScenario.node[29].veinsmobility  posx  ETV
vector 208  RSUScenario.node[29].veinsmobility  posy  ETV
vector 209  RSUScenario.node[29].veinsmobility  speed  ETV
vector 210  RSUScenario.node[29].veinsmobility  acceleration  ETV
vector 211  RSUScenario.node[29].veinsmobility  co2emission  ETV
8	4	0.3	1.4276208928798
8	5	0.4	1.5553504369406
8	6	0.5	1.6547258140606
8	7	0.6	1.7983555805977
8	8	0.7	1.8323674505787
8	9	0.8	2.0110897446338
8	10	0.9	1.970451684244
8	11	1	2.244901373431
8	12	1.1	2.2119208452933
8	13	1.2	2.2548819012347
8	14	1.3	2.5345448660167
8	15	1.4	2.6013847819414
8	16	1.5	2.852151772081
8	17	1.6	2.3526342216865
8	18	1.7	3.339605186172
8	19	1.8	2.4276646371033
8	20	1.9	3.3234379637286
8	21	2	3.3108190720898
8	22	2.1	3.2988402737822
8	23	2.2	2.9578171889378
8	24	2.3	2.9959376211745
8	25	2.4	3.4908200907348
8	26	2.5	3.6670806850063
8	27	2.6	3.6268696198063
8	28	2.7	4.0205201967415
8	29	2.8	3.1988957479633
8	30	2.9	3.4137976506977
8	31	3	4.907912272511
8	32	3.1	4.5496391886597
8	33	3.2	5.1843707050129
8	34	3.3	5.490502883119
8	35	3.4	3.8970556575359
8	36	3.5	4.0812734992789
8	37	3.6	3.9458891055838
8	38	3.7	3.7593760917064
8	39	3.8	4.2273339749307
8	40	3.9	5.1045553963918
8	41	4	4.4294934204996
8	42	4.1	6.1704815888201
8	43	4.2	4.9722185416067
8	44	4.3	6.3796667209292
8	45	4.4	4.3550328563445
8	46	4.5	5.5724689565354
8	47	4.6	5.9783016536976
8	48	4.7	6.531517038645
8	49	4.8	5.1600288586713
8	50	4.9	6.1886912441601
8	51	5	5.9549957283831
8	52	5.1	7.7853608744789
8	53	5.2	6.0293065596097
8	54	5.3	6.1389862136434
8	55	5.4	6.215380184048
8	56	5.5	5.2080809029875
8	57	5.6	6.1561018361202
8	58	5.7	7.3629412347938
8	59	5.8	7.2141082079045
8	60	5.9	6.3899916329279
8	61	6	8.8173762262081
8	62	6.1	6.712915009577
8	63	6.2	6.7856909201694
8	64	6.3	8.0773156423548
8	65	6.4	8.3743676988308
8	66	6.5	8.4713421478856
8	67	6.6	8.1436375074094
8	68	6.7	6.1246890190291
8	69	6.8	9.3014481119437
8	70	6.9	6.1272339967354
8	71	7	9.3496226877566
8	72	7.1	8.5304672898817
8	73	7.2	9.1242607840614
8	74	7.3	0.973
8	75	7.4	4.3577761273913
8	76	7.5	0.973
8	77	7.6	2.5720389208699
8	78	7.7	2.8766605061585
8	79	7.8	4.3165487169568
8	80	7.9	0.973
8	81	8	1.5897409358382
8	82	8.1	4.2992840120413
8	83	8.2	3.8192287130312
8	84	8.3	0.973
8	85	8.4	4.9896392768023
8	86	8.5	0.973
8	87	8.6	3.2116257252267
8	88	8.7	2.8822162993739
8	89	8.8	0.973
8	90	8.9	2.2705069044256
8	91	9	3.8308782287708
8	92	9.1	2.0735985700595
8	93	9.2	0.973
8	94	9.3	2.8376475775941
8	95	9.4	1.3397800903168
8	96	9.5	0.973
8	97	9.6	0.973
8	98	9.7	2.6721583083952
8	99	9.8	0.973
8	100	9.9	0.973
8	101	10	0.973
8	102	10.1	0.973
8	103	10.2	0.973
8	104	10.3	0.973
8	105	10.4	0.973
8	106	10.5	0.973
8	107	10.6	0.973
8	108	10.7	0.973
8	109	10.8	0.973
8	110	10.9	0.973
8	111	11	0.973
8	112	11.1	0.973
8	113	11.2	0.973
8	114	11.3	0.973
8	115	11.4	0.973
8	116	11.5	0.973
8	117	11.6	0.973
8	118	11.7	0.973
8	119	11.8	0.973
8	120	11.9	0.973
8	121	12	0.973
8	122	12.1	0.973
8	123	12.2	0.973
8	124	12.3	0.973
8	125	12.4	0.973
8	126	12.5	0.973
8	127	12.6	0.973
8	128	12.7	0.973
8	129	12.8	0.973
8	130	12.9	0.973
8	131	13	0.973
8	132	13.1	0.973
8	133	13.2	0.973
8	134	13.3	0.973
8	135	13.4	3.6101325009105
8	136	13.5	3.7866470992738
8	137	13.6	3.963309994056
8	138	13.7	4.1401309271642
8	139	13.8	4.3171196405056
8	140	13.9	4.4942858759874
8	141	14	4.6716393755166
8	142	14.1	4.8491898810006
8	143	14.2	5.0269471343464
8	144	14.3	3.9970728887511
8	145	14.4	4.4122340104701
8	146	14.5	3.9857879869353
8	147	14.6	4.1712499061556
8	148	14.7	5.1963186665476
8	149	14.8	4.9903995359427
8	150	14.9	4.7953356097084
8	151	15	5.4809004152125
8	152	15.1	4.6262447056145
8	153	15.2	4.4393624019538
8	154	15.3	5.713339442627
8	155	15.4	4.8065606355573
8	156	15.5	5.058138189087
8	157	15.6	4.7096253149982
8	158	15.7	6.2430602413034
8	159	15.8	5.8496636653691
8	160	15.9	6.8282879910342
8	161	16	7.3866710980342
8	162	16.1	6.9868512314968
8	163	16.2	7.6756060267762
8	164	16.3	5.8189300079505
8	165	16.4	8.088814044088
8	166	16.5	5.9434218316536
8	167	16.6	6.4412341462902
8	168	16.7	7.7904240881863
8	169	16.8	6.9702989918386
8	170	16.9	6.3054014484875
8	171	17	8.2600695507664
8	172	17.1	5.9350574008111
8	173	17.2	6.4064044145534
8	174	17.3	7.788292505273
8	175	17.4	7.9457999678515
8	176	17.5	8.04890076254
8	177	17.6	6.6416096252825
8	178	17.7	8.2913621108126
8	179	17.8	6.2525174544941
8	180	17.9	7.1425528358753
8	181	18	9.6667204745728
8	182	18.1	7.5731092342157
8	183	18.2	6.9806324503632
8	184	18.3	10.119589328678
8	185	18.4	1.9427338987398
8	186	18.5	2.7833840446186
8	187	18.6	2.8836874098047
8	188	18.7	0.973
8	189	18.8	5.3680948288379
8	190	18.9	0.973
8	191	19	1.9796426442958
8	192	19.1	0.973
8	193	19.2	3.7649097958479
8	194	19.3	3.2342043860393
8	195	19.4	2.5370470023251
8	196	19.5	0.973
8	197	19.6	0.973
8	198	19.7	3.3051247019002
8	199	19.8	3.5014777941578
8	200	19.9	2.0556055015184
8	201	20	0.973
8	202	20.1	3.3273489879395
8	203	20.2	0.973
8	204	20.3	2.8083311032441
8	205	20.4	0.973
8	206	20.5	3.8701196018204
8	207	20.6	3.9055126662748
8	208	20.7	2.2167231120935
8	209	20.8	0.973
8	210	20.9	0.973
8	211	21	0.973
8	212	21.1	0.973
8	213	21.2	0.973
8	214	21.3	0.973
8	215	21.4	0.973
8	216	21.5	0.973
8	217	21.6	0.973
8	218	21.7	0.973
8	219	21.8	0.973
8	220	21.9	0.973
8	221	22	0.973
8	222	22.1	0.973
8	223	22.2	0.973
8	224	22.3	0.973
8	225	22.4	0.973
8	226	22.5	0.973
8	227	22.6	0.973
8	228	22.7	0.973
8	229	22.8	0.973
8	230	22.9	0.973
8	231	23	0.973
8	232	23.1	0.973
8	233	23.2	0.973
8	234	23.3	0.973
8	235	23.4	0.973
8	236	23.5	0.973
8	237	23.6	0.973
8	238	23.7	0.973
8	239	23.8	0.973
8	240	23.9	0.973
8	241	24	0.973
8	242	24.1	0.973
8	243	24.2	0.973
8	244	24.3	0.973
8	245	24.4	3.6209063005182
8	246	24.5	3.7974296745101
8	247	24.6	3.9741019397557
8	248	24.7	4.1509328381619
8	249	24.8	4.3279321116361
8	250	24.9	4.5051095020853
8	251	25	4.6824747514167
8	252	25.1	4.8600376015376
8	253	25.2	5.0378077943551
8	254	25.3	3.8164667610214
8	255	25.4	4.5651875349256
8	256	25.5	5.0548890443678
8	257	25.6	5.1186656150014
8	258	25.7	4.8292864242899
8	259	25.8	4.5802440378755
8	260	25.9	5.0052234726688
8	261	26	4.065030884919
8	262	26.1	4.4247699778893
8	263	26.2	4.4779056915086
8	264	26.3	4.1394306182584
8	265	26.4	4.3084079585887
8	266	26.5	4.9803518165032
8	267	26.6	5.8010180694295
8	268	26.7	5.6789918810698
8	269	26.8	6.8364294036874
8	270	26.9	6.1285515055448
8	271	27	6.3022261987701
8	272	27.1	5.0959622441853
8	273	27.2	5.3054615568601
8	274	27.3	7.4580386530611
8	275	27.4	7.6430218822055
8	276	27.5	6.42467299395
8	277	27.6	5.4712219785001
8	278	27.7	7.6362931921965
8	279	27.8	5.5935701475617
8	280	27.9	8.1183617760143
8	281	28	6.029960223631
8	282	28.1	7.5104982469417
8	283	28.2	7.7371127370674
8	284	28.3	7.3698151475531
8	285	28.4	8.7672038527556
8	286	28.5	8.8861916235717
8	287	28.6	6.5330553509768
8	288	28.7	6.9273604506155
8	289	28.8	7.60554960604
8	290	28.9	6.885122009463
8	291	29	7.3324039350839
8	292	29.1	7.2676949296292
8	293	29.2	8.5635461001657
8	294	29.3	10.14750759582
8	295	29.4	10.295919147244
8	296	29.5	7.471391933709
8	297	29.6	10.043305842803
8	298	29.7	7.9716249962223
8	299	29.8	8.2960866168488
8	300	29.9	10.382958332887
8	301	30	8.1655001514394
8	302	30.1	10.493820191613
8	303	30.2	11.163097225559
8	304	30.3	11.841642441858
8	305	30.4	9.9874112262721
8	306	30.5	8.6872530003342
8	307	30.6	8.0534543601196
8	308	30.7	10.156283264398
8	309	30.8	5.7889812256928
8	310	30.9	1.3952288809148
8	311	31	2.6609194705271
8	312	31.1	2.7344879303164
8	313	31.2	2.5761390283213
8	314	31.3	3.6008812751586
8	315	31.4	2.2753745598713
8	316	31.5	2.8809209385127
8	317	31.6	2.4081193128498
8	318	31.7	3.6302809230283
8	319	31.8	0.973
8	320	31.9	5.7495550336034
8	321	32	1.7504887680961
8	322	32.1	0.973
8	323	32.2	5.5548883722328
8	324	32.3	0.973
8	325	32.4	0.973
8	326	32.5	3.9359947224652
8	327	32.6	1.7076930875453
8	328	32.7	3.8612655839345
8	329	32.8	0.973
8	330	32.9	2.9011003655164
8	331	33	3.7352687556866
8	332	33.1	3.0921627864141
8	333	33.2	3.2944181995124
8	334	33.3	0.973
8	335	33.4	6.9866669932975
8	336	33.5	0.973
8	337	33.6	0.973
8	338	33.7	1.8349193998156
8	339	33.8	6.4138566998369
8	340	33.9	1.3099420062793
8	341	34	0.973
8	342	34.1	1.0737965256348
8	343	34.2	6.1775074424379
8	344	34.3	2.3565972374905
8	345	34.4	0.973
8	346	34.5	6.0907541824315
8	347	34.6	0.973
8	348	34.7	2.9184636402269
8	349	34.8	4.9353736438547
8	350	34.9	0.973
8	351	35	3.0494588793127
8	352	35.1	4.364303159537
8	353	35.2	3.2523016239485
8	354	35.3	0.973
8	355	35.4	3.6239644220041
8	356	35.5	3.7582388957337
8	357	35.6	0.973
8	358	35.7	5.5219769371376
8	359	35.8	1.3883218714029
8	360	35.9	0.973
8	361	36	5.2593174581927
8	362	36.1	0.973
8	363	36.2	2.8226719733558
8	364	36.3	1.1789797326397
8	365	36.4	2.8389935147568
8	366	36.5	4.6643766521643
8	367	36.6	0.973
8	368	36.7	2.0208387449904
8	369	36.8	3.3093179113277
8	370	36.9	2.9199701170854
8	371	37	1.0684769766356
8	372	37.1	2.6214086499834
8	373	37.2	4.5436799395796
8	374	37.3	0.973
8	375	37.4	2.4559146966869
8	376	37.5	2.5301236420216
8	377	37.6	2.2539708482669
8	378	37.7	3.1617775937096
8	379	37.8	3.4839284641526
8	380	37.9	4.1316419709267
8	381	38	0.973
8	382	38.1	1.9335809536057
8	383	38.2	2.2397702147486
8	384	38.3	3.862890516016
8	385	38.4	1.6466384917996
8	386	38.5	5.3070105005445
8	387	38.6	0.973
8	388	38.7	2.6433023563445
8	389	38.8	1.3150403088835
8	390	38.9	4.4121470097473
8	391	39	0.973
8	392	39.1	3.2539728815809
8	393	39.2	2.221318114532
8	394	39.3	5.2457505454748
8	395	39.4	0.973
8	396	39.5	4.2329964129078
8	397	39.6	0.973
8	398	39.7	2.6438512589709
8	399	39.8	5.5721201549532
8	400	39.9	3.176259262386
8	401	40	0.973
8	402	40.1	4.7050481246892
8	403	40.2	1.3271100161777
8	404	40.3	1.1912415951686
8	405	40.4	4.6177773589449
8	406	40.5	0.973
8	407	40.6	3.5292665773869
8	408	40.7	5.0385610662265
8	409	40.8	0.973
8	410	40.9	2.5548531699888
8	411	41	4.8495446705132
8	412	41.1	0.973
8	413	41.2	4.6825693570539
8	414	41.3	0.973
8	415	41.4	2.4299217173833
8	416	41.5	1.2272882871905
8	417	41.6	3.2774043723274
8	418	41.7	4.9509691854878
8	419	41.8	0.973
8	420	41.9	6.0591711653615
8	421	42	0.973
8	422	42.1	2.6728389320583
8	423	42.2	0.973
8	424	42.3	6.1773914107568
8	425	42.4	0.973
8	426	42.5	4.647807862433
8	427	42.6	0.973
8	428	42.7	6.3807871721255
8	429	42.8	1.4402444732146
8	430	42.9	3.2970772831306
8	431	43	0.973
8	432	43.1	3.0319997090673
8	433	43.2	4.1311905077207
8	434	43.3	0.973
8	435	43.4	2.6626556936246
8	436	43.5	3.7779608649397
8	437	43.6	3.5562601844342
8	438	43.7	0.91381522879326
8	439	43.8	4.3885343641442
8	440	43.9	1.8729134812405
8	441	44	0.973
8	442	44.1	1.7435748738994
8	443	44.2	6.7572770253783
8	444	44.3	0.973
8	445	44.4	1.2123933666114
8	446	44.5	3.8501265417541
8	447	44.6	3.5950006233403
8	448	44.7	0.973
8	449	44.8	6.3367520399961
8	450	44.9	0.973
8	451	45	3.365050492309
8	452	45.1	3.4702038290028
8	453	45.2	3.5624042927021
8	454	45.3	0.973
8	455	45.4	5.5539281887408
8	456	45.5	3.5893630929655
8	457	45.6	0.973
8	458	45.7	3.4941879354118
8	459	45.8	0.973
8	460	45.9	6.8934853915074
8	461	46	0.973
8	462	46.1	2.7975675865084
8	463	46.2	1.9391812686665
8	464	46.3	2.1404471147204
8	465	46.4	2.1329280581257
8	466	46.5	2.5674508664844
8	467	46.6	2.4227200297221
8	468	46.7	2.4210676275827
8	469	46.8	3.2464929977157
8	470	46.9	2.3000763675426
8	471	47	3.0706315744808
8	472	47.1	1.3644214724284
8	473	47.2	3.0070043876841
8	474	47.3	3.8225170360205
8	475	47.4	0.973
8	476	47.5	1.3972965448435
8	477	47.6	4.5211967974791
8	478	47.7	3.2604663426093
8	479	47.8	3.7182369694418
8	480	47.9	1.7579732937783
8	481	48	0.973
8	482	48.1	3.3100225821702
8	483	48.2	0.973
8	484	48.3	2.1004824917426
8	485	48.4	4.5125266690099
8	486	48.5	3.1657446946858
8	487	48.6	0.973
8	488	48.7	5.0599544619396
8	489	48.8	1.9737905731701
8	490	48.9	0.973
8	491	49	4.7034544012674
8	492	49.1	2.9937021947655
8	493	49.2	1.4349989724904
8	494	49.3	4.3698601069854
8	495	49.4	2.0846794226617
8	496	49.5	0.973
8	497	49.6	2.76053637615
8	498	49.7	1.5112080217475
8	499	49.8	5.8616860438231
8	500	49.9	0.973
8	501	50	3.1941813171845
8	502	50.1	3.0806754577041
8	503	50.2	4.479809979414
8	504	50.3	0.973
8	505	50.4	12.18659615706
8	506	50.5	7.8768165206615
8	507	50.6	9.7033990817881
8	508	50.7	12.219903410402
8	509	50.8	9.4895922623419
8	510	50.9	11.088377886046
8	511	51	10.430707028707
8	512	51.1	11.930366505159
8	513	51.2	12.683023358017
8	514	51.3	12.527337443914
8	515	51.4	10.538075039477
8	516	51.5	11.539203313846
8	517	51.6	9.2857351946603
8	518	51.7	10.986126002209
8	519	51.8	14.321714867606
8	520	51.9	12.641879415941
8	521	52	9.1144751789181
8	522	52.1	11.315775104834
8	523	52.2	10.523502628992
8	524	52.3	15.599255396367
8	525	52.4	15.785365755705
8	526	52.5	14.24693340323
8	527	52.6	10.840284746224
8	528	52.7	10.433416104009
8	529	52.8	11.44364423775
8	530	52.9	13.315827006983
8	531	53	15.500111620356
8	532	53.1	16.795688480286
8	533	53.2	8.8039955373013
8	534	53.3	5.2692252869889
8	535	53.4	0.94915512200981
8	536	53.5	1.1675060201549
8	537	53.6	6.2947991244833
8	538	53.7	1.3266185494309
8	539	53.8	3.7982542021009
8	540	53.9	0.31047947447463
8	541	54	8.7368063087454
8	542	54.1	3.7342397854385
8	543	54.2	2.2512810855036
8	544	54.3	0.973
8	545	54.4	5.5657388538996
8	546	54.5	0.4860903489663
8	547	54.6	0.87162179752009
8	548	54.7	6.7731024596222
8	549	54.8	3.8420644974507
8	550	54.9	5.1216281478555
8	551	55	1.0552077675924
8	552	55.1	0.973
8	553	55.2	3.7841433353647
8	554	55.3	6.3209279069556
8	555	55.4	5.5077912190051
8	556	55.5	2.1098831069035
8	557	55.6	3.716997661685
8	558	55.7	1.6626710580121
8	559	55.8	4.507214796194
8	560	55.9	1.0892873275112
8	561	56	1.071298012414
8	562	56.1	2.1016496896976
8	563	56.2	3.340435657238
8	564	56.3	6.7741904791298
8	565	56.4	2.2414189969027
8	566	56.5	0.78586855863151
8	567	56.6	7.2766971415268
8	568	56.7	0.59527992944348
8	569	56.8	2.0177735310888
8	570	56.9	3.5048838269002
8	571	57	5.3880328684666
8	572	57.1	1.5349298518368
8	573	57.2	2.3000059807143
8	574	57.3	3.3585195567048
8	575	57.4	4.6545444887293
8	576	57.5	2.0892296598152
8	577	57.6	5.706161558081
8	578	57.7	1.2428211122847
8	579	57.8	3.4212586914209
8	580	57.9	1.5888498387491
8	581	58	2.7455538844295
8	582	58.1	5.2124222571098
8	583	58.2	4.6903211017506
8	584	58.3	4.8902053920527
8	585	58.4	0.973
8	586	58.5	2.0235189880186
8	587	58.6	2.9043063099312
8	588	58.7	7.4555575946314
8	589	58.8	0.325472650111
8	590	58.9	2.3598460881003
8	591	59	2.176439645635
8	592	59.1	3.47187680855
8	593	59.2	7.3431689054807
8	594	59.3	4.5732344759471
8	595	59.4	0.973
8	596	59.5	5.9344549996847
8	597	59.6	2.4621381604805
8	598	59.7	0.87492027771571
8	599	59.8	4.1708461302795
8	600	59.9	8.6031987774242
8	601	60	0.973
8	602	60.1	9.6947472949607
8	603	60.2	0.973
8	604	60.3	3.5304346338988
8	605	60.4	5.4657541142164
8	606	60.5	2.3917053248625
8	607	60.6	3.6736936096046
8	608	60.7	2.1713184814101
8	609	60.8	5.9699225201728
8	610	60.9	0.973
8	611	61	6.2631353046628
8	612	61.1	0.973
8	613	61.2	8.1882340235946
8	614	61.3	0.973
8	615	61.4	7.0142850180002
8	616	61.5	0.973
8	617	61.6	8.00887347161
8	618	61.7	0.73253502344274
8	619	61.8	2.817141363302
8	620	61.9	1.6626462618974
8	621	62	5.1757485334915
8	622	62.1	4.8512446154447
8	623	62.2	0.973
8	624	62.3	0.973
8	625	62.4	0.973
8	626	62.5	0.973
8	627	62.6	0.973
8	628	62.7	0.973
8	629	62.8	0.973
8	630	62.9	0.973
8	631	63	0.973
8	632	63.1	0.973
8	633	63.2	0.973
8	634	63.3	0.973
8	635	63.4	0.973
8	636	63.5	0.973
8	637	63.6	0.973
8	638	63.7	0.973
8	639	63.8	0.973
8	640	63.9	0.973
8	641	64	0.973
8	642	64.1	0.973
8	643	64.2	0.973
8	644	64.3	0.973
8	645	64.4	0.973
8	646	64.5	0.973
8	647	64.6	0.973
8	648	64.7	0.973
8	649	64.8	0.973
8	650	64.9	0.973
8	651	65	0.973
8	652	65.1	0.973
8	653	65.2	0.973
8	654	65.3	0.973
8	655	65.4	0.973
8	656	65.5	0.973
8	657	65.6	0.973
8	658	65.7	0.973
8	659	65.8	0.973
8	660	65.9	0.973
8	661	66	0.973
8	662	66.1	0.973
8	663	66.2	0.973
8	664	66.3	0.973
8	665	66.4	0.973
8	666	66.5	0.973
8	667	66.6	0.973
8	668	66.7	0.973
8	669	66.8	0.973
8	670	66.9	0.973
8	671	67	0.973
8	672	67.1	0.973
8	673	67.2	0.973
8	674	67.3	0.973
8	675	67.4	0.973
8	676	67.5	0.973
8	677	67.6	0.973
8	678	67.7	0.973
8	679	67.8	0.973
8	680	67.9	0.973
8	681	68	0.973
8	682	68.1	0.973
8	683	68.2	3.5963158520949
8	684	68.3	3.7728192488695
8	685	68.4	3.949470179187
8	686	68.5	4.1262783849546
8	687	68.6	4.3032536080795
8	688	68.7	4.4804055904689
8	689	68.8	4.65774407403
8	690	68.9	4.8352788006698
8	691	69	5.0130195122957
8	692	69.1	4.8448811956665
8	693	69.2	5.1807486477588
8	694	69.3	4.9209527081523
8	695	69.4	3.8749745953603
8	696	69.5	3.7983821578402
8	697	69.6	5.1388908108262
8	698	69.7	4.6707025240849
8	699	69.8	4.9194182357036
8	700	69.9	5.8204341503006
8	701	70	4.1719720227531
8	702	70.1	6.4608787867635
8	703	70.2	4.8133846350704
8	704	70.3	5.3961560591095
8	705	70.4	6.5748680538576
8	706	70.5	5.6046988810308
8	707	70.6	6.3610028730227
8	708	70.7	5.8100550500449
8	709	70.8	6.7469261124991
8	710	70.9	6.0538136356229
8	711	71	7.7326892090478
8	712	71.1	6.6603878486129
8	713	71.2	5.8227789925938
8	714	71.3	5.989624934916
8	715	71.4	8.3128793599537
8	716	71.5	8.5047514930556
8	717	71.6	7.0346487363315
8	718	71.7	6.51639836209
8	719	71.8	6.5660440750975
8	720	71.9	7.4434469260924
8	721	72	8.4483754470981
8	722	72.1	6.622596964588
8	723	72.2	8.0117287169293
8	724	72.3	6.3823676290107
8	725	72.4	7.3804484403452
8	726	72.5	7.1732824435722
8	727	72.6	9.0515657432764
8	728	72.7	8.6489492525622
8	729	72.8	7.3003235051373
8	730	72.9	10.38610800273
8	731	73	9.1789892540259
8	732	73.1	9.7970020540282
8	733	73.2	7.4067539241085
8	734	73.3	7.6681134366545
8	735	73.4	10.706048919554
8	736	73.5	7.3916005226537
8	737	73.6	9.0366683243605
8	738	73.7	11.643443215003
8	739	73.8	8.6023712314478
8	740	73.9	9.6384894170902
8	741	74	11.359100011466
8	742	74.1	9.5483982476632
8	743	74.2	8.6063918349207
8	744	74.3	7.6662888613417
8	745	74.4	9.089631404878
8	746	74.5	11.063402379482
8	747	74.6	10.796710033492
8	748	74.7	10.626784711497
8	749	74.8	11.697083045713
8	750	74.9	12.441200958231
8	751	75	12.359076444124
8	753	75.1	0.973
8	754	75.2	0.973
8	755	75.3	0.973
8	756	75.4	0.973
8	757	75.5	0.973
8	758	75.6	0.973
8	759	75.7	0.973
8	760	75.8	0.973
8	761	75.9	0.973
8	762	76	0.973
8	763	76.1	0.973
8	764	76.2	0.973
8	765	76.3	0.973
8	766	76.4	0.973
8	767	76.5	0.973
8	768	76.6	0.973
8	769	76.7	0.973
8	770	76.8	0.973
8	771	76.9	0.973
8	772	77	0.973
8	773	77.1	0.973
8	774	77.2	0.973
8	775	77.3	0.973
8	776	77.4	0.973
8	777	77.5	0.973
8	778	77.6	0.973
8	779	77.7	0.973
8	780	77.8	0.973
8	781	77.9	0.973
8	782	78	0.973
8	783	78.1	0.973
8	784	78.2	0.973
8	785	78.3	0.973
8	786	78.4	0.973
8	787	78.5	0.973
8	788	78.6	0.973
8	789	78.7	0.973
8	790	78.8	0.973
8	791	78.9	0.973
8	792	79	0.973
8	793	79.1	0.973
8	794	79.2	0.973
8	795	79.3	0.973
8	796	79.4	0.973
8	797	79.5	0.973
8	798	79.6	0.973
8	799	79.7	0.973
8	800	79.8	0.973
8	801	79.9	0.973
8	802	80	0.973
8	803	80.1	0.973
8	804	80.2	0.973
8	805	80.3	0.973
8	806	80.4	0.973
8	807	80.5	0.973
8	808	80.6	0.973
8	809	80.7	0.973
8	810	80.8	0.973
8	811	80.9	0.973
8	812	81	0.973
8	813	81.1	0.973
8	814	81.2	0.973
8	815	81.3	0.973
8	816	81.4	0.973
8	817	81.5	0.973
8	818	81.6	0.973
8	819	81.7	0.973
8	820	81.8	0.973
8	821	81.9	0.973
8	822	82	0.973
8	823	82.1	0.973
8	824	82.2	0.973
8	825	82.3	0.973
8	826	82.4	0.973
8	827	82.5	0.973
8	828	82.6	0.973
8	829	82.7	0.973
8	830	82.8	0.973
8	831	82.9	0.973
8	832	83	0.973
8	833	83.1	0.973
8	834	83.2	0.973
8	835	83.3	0.973
8	836	83.4	0.973
8	837	83.5	0.973
8	838	83.6	0.973
8	839	83.7	0.973
8	840	83.8	0.973
8	841	83.9	0.973
8	842	84	0.973
8	843	84.1	0.973
8	844	84.2	0.973
8	845	84.3	0.973
8	846	84.4	0.973
8	847	84.5	0.973
8	848	84.6	0.973
8	849	84.7	0.973
8	850	84.8	0.973
8	851	84.9	0.973
8	852	85	0.973
8	853	85.1	0.973
8	854	85.2	0.973
8	855	85.3	0.973
8	856	85.4	0.973
8	857	85.5	0.973
8	858	85.6	0.973
8	859	85.7	0.973
8	860	85.8	0.973
8	861	85.9	0.973
8	862	86	0.973
8	863	86.1	0.973
8	864	86.2	0.973
8	865	86.3	0.973
8	866	86.4	0.973
8	867	86.5	0.973
8	868	86.6	0.973
8	869	86.7	0.973
8	870	86.8	0.973
8	871	86.9	0.973
8	872	87	0.973
8	873	87.1	0.973
8	874	87.2	0.973
8	875	87.3	0.973
8	876	87.4	0.973
8	877	87.5	0.973
8	878	87.6	0.973
8	879	87.7	0.973
8	880	87.8	0.973
8	881	87.9	0.973
8	882	88	0.973
8	883	88.1	0.973
8	884	88.2	0.973
8	885	88.3	0.973
8	886	88.4	0.973
8	887	88.5	0.973
8	888	88.6	0.973
8	889	88.7	0.973
7	4	0.3	2.4479752470855
7	5	0.4	2.3290637582572
7	6	0.5	2.1818481258762
7	7	0.6	2.2357036410334
7	8	0.7	1.9855717337837
7	9	0.8	2.1556800054752
7	10	0.9	1.8177961522857
7	11	1	2.1703654659723
7	12	1.1	1.8999668675033
7	13	1.2	1.8135391334582
7	14	1.3	2.1003037793096
7	15	1.4	2.0311366270296
7	16	1.5	2.213205013168
7	17	1.6	1.4406950977165
7	18	1.7	2.5262731315568
7	19	1.8	1.3472384067252
7	20	1.9	2.2455468171276
7	21	2	2.1015260222834
7	22	2.1	1.979035354848
7	23	2.2	1.5707574565429
7	24	2.3	1.5441806555958
7	25	2.4	1.9124366020085
7	26	2.5	1.9760296771768