                                                                
version 2
run nodebug-0-20150420-15:29:31-27364
attr configname nodebug
attr datetime 20150420-15:29:31
attr experiment nodebug
attr inifile omnetpp.ini
attr iterationvars ""
attr iterationvars2 $repetition=0
attr measurement ""
attr network RSUScenario
attr processid 27364
attr repetition 0
attr replication #0
attr resultdir results
attr runnumber 0
attr seedset 0

vector 4  RSUScenario.node[0].veinsmobility  posx  ETV
vector 5  RSUScenario.node[0].veinsmobility  posy  ETV
vector 6  RSUScenario.node[0].veinsmobility  speed  ETV
vector 7  RSUScenario.node[0].veinsmobility  acceleration  ETV
vector 8  RSUScenario.node[0].veinsmobility  co2emission  ETV
vector 11  RSUScenario.node[1].veinsmobility  posx  ETV
vector 12  RSUScenario.node[1].veinsmobility  posy  ETV
vector 13  RSUScenario.node[1].veinsmobility  speed  ETV
vector 14  RSUScenario.node[1].veinsmobility  acceleration  ETV
vector 15  RSUScenario.node[1].veinsmobility  co2emission  ETV
vector 18  RSUScenario.node[2].veinsmobility  posx  ETV
vector 19  RSUScenario.node[2].veinsmobility  posy  ETV
vector 20  RSUScenario.node[2].veinsmobility  speed  ETV
vector 21  RSUScenario.node[2].veinsmobility  acceleration  ETV
vector 22  RSUScenario.node[2].veinsmobility  co2emission  ETV
vector 25  RSUScenario.node[3].veinsmobility  posx  ETV
vector 26  RSUScenario.node[3].veinsmobility  posy  ETV
vector 27  RSUScenario.node[3].veinsmobility  speed  ETV
vector 28  RSUScenario.node[3].veinsmobility  acceleration  ETV
vector 29  RSUScenario.node[3].veinsmobility  co2emission  ETV
vector 32  RSUScenario.node[4].veinsmobility  posx  ETV
vector 33  RSUScenario.node[4].veinsmobility  posy  ETV
vector 34  RSUScenario.node[4].veinsmobility  speed  ETV
vector 35  RSUScenario.node[4].veinsmobility  acceleration  ETV
vector 36  RSUScenario.node[4].veinsmobility  co2emission  ETV
vector 39  RSUScenario.node[5].veinsmobility  posx  ETV
vector 40  RSUScenario.node[5].veinsmobility  posy  ETV
vector 41  RSUScenario.node[5].veinsmobility  speed  ETV
vector 42  RSUScenario.node[5].veinsmobility  acceleration  ETV
vector 43  RSUScenario.node[5].veinsmobility  co2emission  ETV
vector 46  RSUScenario.node[6].veinsmobility  posx  ETV
vector 47  RSUScenario.node[6].veinsmobility  posy  ETV
vector 48  RSUScenario.node[6].veinsmobility  speed  ETV
vector 49  RSUScenario.node[6].veinsmobility  acceleration  ETV
vector 50  RSUScenario.node[6].veinsmobility  co2emission  ETV
vector 53  RSUScenario.node[7].veinsmobility  posx  ETV
vector 54  RSUScenario.node[7].veinsmobility  posy  ETV
vector 55  RSUScenario.node[7].veinsmobility  speed  ETV
vector 56  RSUScenario.node[7].veinsmobility  acceleration  ETV
vector 57  RSUScenario.node[7].veinsmobility  co2emission  ETV
vector 60  RSUScenario.node[8].veinsmobility  posx  ETV
vector 61  RSUScenario.node[8].veinsmobility  posy  ETV
vector 62  RSUScenario.node[8].veinsmobility  speed  ETV
vector 63  RSUScenario.node[8].veinsmobility  acceleration  ETV
vector 64  RSUScenario.node[8].veinsmobility  co2emission  ETV
vector 67  RSUScenario.node[9].veinsmobility  posx  ETV
vector 68  RSUScenario.node[9].veinsmobility  posy  ETV
vector 69  RSUScenario.node[9].veinsmobility  speed  ETV
vector 70  RSUScenario.node[9].veinsmobility  acceleration  ETV
vector 71  RSUScenario.node[9].veinsmobility  co2emission  ETV
vector 74  RSUScenario.node[10].veinsmobility  posx  ETV
vector 75  RSUScenario.node[10].veinsmobility  posy  ETV
vector 76  RSUScenario.node[10].veinsmobility  speed  ETV
vector 77  RSUScenario.node[10].veinsmobility  acceleration  ETV
vector 78  RSUScenario.node[10].veinsmobility  co2emission  ETV
vector 81  RSUScenario.node[11].veinsmobility  posx  ETV
vector 82  RSUScenario.node[11].veinsmobility  posy  ETV
vector 83  RSUScenario.node[11].veinsmobility  speed  ETV
vector 84  RSUScenario.node[11].veinsmobility  acceleration  ETV
vector 85  RSUScenario.node[11].veinsmobility  co2emission  ETV
vector 88  RSUScenario.node[12].veinsmobility  posx  ETV
vector 89  RSUScenario.node[12].veinsmobility  posy  ETV
vector 90  RSUScenario.node[12].veinsmobility  speed  ETV
vector 91  RSUScenario.node[12].veinsmobility  acceleration  ETV
vector 92  RSUScenario.node[12].veinsmobility  co2emission  ETV
vector 95  RSUScenario.node[13].veinsmobility  posx  ETV
vector 96  RSUScenario.node[13].veinsmobility  posy  ETV
vector 97  RSUScenario.node[13].veinsmobility  speed  ETV
vector 98  RSUScenario.node[13].veinsmobility  acceleration  ETV
vector 99  RSUScenario.node[13].veinsmobility  co2emission  ETV
vector 102  RSUScenario.node[14].veinsmobility  posx  ETV
vector 103  RSUScenario.node[14].veinsmobility  posy  ETV
vector 104  RSUScenario.node[14].veinsmobility  speed  ETV
vector 105  RSUScenario.node[14].veinsmobility  acceleration  ETV
vector 106  RSUScenario.node[14].veinsmobility  co2emission  ETV
vector 109  RSUScenario.node[15].veinsmobility  posx  ETV
vector 110  RSUScenario.node[15].veinsmobility  posy  ETV
vector 111  RSUScenario.node[15].veinsmobility  speed  ETV
vector 112  RSUScenario.node[15].veinsmobility  acceleration  ETV
vector 113  RSUScenario.node[15].veinsmobility  co2emission  ETV
vector 116  RSUScenario.node[16].veinsmobility  posx  ETV
vector 117  RSUScenario.node[16].veinsmobility  posy  ETV
vector 118  RSUScenario.node[16].veinsmobility  speed  ETV
vector 119  RSUScenario.node[16].veinsmobility  acceleration  ETV
vector 120  RSUScenario.node[16].veinsmobility  co2emission  ETV
vector 123  RSUScenario.node[17].veinsmobility  posx  ETV
vector 124  RSUScenario.node[17].veinsmobility  posy  ETV
vector 125  RSUScenario.node[17].veinsmobility  speed  ETV
vector 126  RSUScenario.node[17].veinsmobility  acceleration  ETV
vector 127  RSUScenario.node[17].veinsmobility  co2emission  ETV
vector 130  RSUScenario.node[18].veinsmobility  posx  ETV
vector 131  RSUScenario.node[18].veinsmobility  posy  ETV
vector 132  RSUScenario.node[18].veinsmobility  speed  ETV
vector 133  RSUScenario.node[18].veinsmobility  acceleration  ETV
vector 134  RSUScenario.node[18].veinsmobility  co2emission  ETV
vector 137  RSUScenario.node[19].veinsmobility  posx  ETV
vector 138  RSUScenario.node[19].veinsmobility  posy  ETV
vector 139  RSUScenario.node[19].veinsmobility  speed  ETV
vector 140  RSUScenario.node[19].veinsmobility  acceleration  ETV
vector 141  RSUScenario.node[19].veinsmobility  co2emission  ETV
vector 144  RSUScenario.node[20].veinsmobility  posx  ETV
vector 145  RSUScenario.node[20].veinsmobility  posy  ETV
vector 146  RSUScenario.node[20].veinsmobility  speed  ETV
vector 147  RSUScenario.node[20].veinsmobility  acceleration  ETV
vector 148  RSUScenario.node[20].veinsmobility  co2emission  ETV
vector 151  RSUScenario.node[21].veinsmobility  posx  ETV
vector 152  RSUScenario.node[21].veinsmobility  posy  ETV
vector 153  RSUScenario.node[21].veinsmobility  speed  ETV
vector 154  RSUScenario.node[21].veinsmobility  acceleration  ETV
vector 155  RSUScenario.node[21].veinsmobility  co2emission  ETV
vector 158  RSUScenario.node[22].veinsmobility  posx  ETV
vector 159  RSUScenario.node[22].veinsmobility  posy  ETV
vector 160  RSUScenario.node[22].veinsmobility  speed  ETV
vector 161  RSUScenario.node[22].veinsmobility  acceleration  ETV
vector 162  RSUScenario.node[22].veinsmobility  co2emission  ETV
vector 165  RSUScenario.node[23].veinsmobility  posx  ETV
vector 166  RSUScenario.node[23].veinsmobility  posy  ETV
vector 167  RSUScenario.node[23].veinsmobility  speed  ETV
vector 168  RSUScenario.node[23].veinsmobility  acceleration  ETV
vector 169  RSUScenario.node[23].veinsmobility  co2emission  ETV
vector 172  RSUScenario.node[24].veinsmobility  posx  ETV
vector 173  RSUScenario.node[24].veinsmobility  posy  ETV
vector 174  RSUScenario.node[24].veinsmobility  speed  ETV
vector 175  RSUScenario.node[24].veinsmobility  acceleration  ETV
vector 176  RSUScenario.node[24].veinsmobility  co2emission  ETV
vector 179  RSUScenario.node[25].veinsmobility  posx  ETV
vector 180  RSUScenario.node[25].veinsmobility  posy  ETV
vector 181  RSUScenario.node[25].veinsmobility  speed  ETV
vector 182  RSUScenario.node[25].veinsmobility  acceleration  ETV
vector 183  RSUScenario.node[25].veinsmobility  co2emission  ETV
vector 186  RSUScenario.node[26].veinsmobility  posx  ETV
vector 187  RSUScenario.node[26].veinsmobility  posy  ETV
vector 188  RSUScenario.node[26].veinsmobility  speed  ETV
vector 189  RSUScenario.node[26].veinsmobility  acceleration  ETV
vector 190  RSUScenario.node[26].veinsmobility  co2emission  ETV
vector 193  RSUScenario.node[27].veinsmobility  posx  ETV
vector 194  RSUScenario.node[27].veinsmobility  posy  ETV
vector 195  RSUScenario.node[27].veinsmobility  speed  ETV
vector 196  RSUScenario.node[27].veinsmobility  acceleration  ETV
vector 197  RSUScenario.node[27].veinsmobility  co2emission  ETV
vector 200  RSUScenario.node[28].veinsmobility  posx  ETV
vector 201  RSUScenario.node[28].veinsmobility  posy  ETV
vector 202  RSUScenario.node[28].veinsmobility  speed  ETV
vector 203  RSUScenario.node[28].veinsmobility  acceleration  ETV
vector 204  RSUScenario.node[28].veinsmobility  co2emission  ETV
vector 207  RSUScenario.node[29].veinsmobility  posx  ETV
vector 208  RSUScenario.node[29].veinsmobility  posy  ETV
vector 209  RSUScenario.node[29].veinsmobility  speed  ETV
vector 210  RSUScenario.node[29].veinsmobility  acceleration  ETV
vector 211  RSUScenario.node[29].veinsmobility  co2emission  ETV
vector 214  RSUScenario.node[30].veinsmobility  posx  ETV
vector 215  RSUScenario.node[30].veinsmobility  posy  ETV
vector 216  RSUScenario.node[30].veinsmobility  speed  ETV
vector 217  RSUScenario.node[30].veinsmobility  acceleration  ETV
vector 218  RSUScenario.node[30].veinsmobility  co2emission  ETV
vector 221  RSUScenario.node[31].veinsmobility  posx  ETV
vector 222  RSUScenario.node[31].veinsmobility  posy  ETV
vector 223  RSUScenario.node[31].veinsmobility  speed  ETV
vector 224  RSUScenario.node[31].veinsmobility  acceleration  ETV
vector 225  RSUScenario.node[31].veinsmobility  co2emission  ETV
vector 228  RSUScenario.node[32].veinsmobility  posx  ETV
vector 229  RSUScenario.node[32].veinsmobility  posy  ETV
vector 230  RSUScenario.node[32].veinsmobility  speed  ETV
vector 231  RSUScenario.node[32].veinsmobility  acceleration  ETV
vector 232  RSUScenario.node[32].veinsmobility  co2emission  ETV
vector 235  RSUScenario.node[33].veinsmobility  posx  ETV
vector 236  RSUScenario.node[33].veinsmobility  posy  ETV
vector 237  RSUScenario.node[33].veinsmobility  speed  ETV
vector 238  RSUScenario.node[33].veinsmobility  acceleration  ETV
vector 239  RSUScenario.node[33].veinsmobility  co2emission  ETV
vector 242  RSUScenario.node[34].veinsmobility  posx  ETV
vector 243  RSUScenario.node[34].veinsmobility  posy  ETV
vector 244  RSUScenario.node[34].veinsmobility  speed  ETV
vector 245  RSUScenario.node[34].veinsmobility  acceleration  ETV
vector 246  RSUScenario.node[34].veinsmobility  co2emission  ETV
vector 249  RSUScenario.node[35].veinsmobility  posx  ETV
vector 250  RSUScenario.node[35].veinsmobility  posy  ETV
vector 251  RSUScenario.node[35].veinsmobility  speed  ETV
vector 252  RSUScenario.node[35].veinsmobility  acceleration  ETV
vector 253  RSUScenario.node[35].veinsmobility  co2emission  ETV
vector 256  RSUScenario.node[36].veinsmobility  posx  ETV
vector 257  RSUScenario.node[36].veinsmobility  posy  ETV
vector 258  RSUScenario.node[36].veinsmobility  speed  ETV
vector 259  RSUScenario.node[36].veinsmobility  acceleration  ETV
vector 260  RSUScenario.node[36].veinsmobility  co2emission  ETV
vector 263  RSUScenario.node[37].veinsmobility  posx  ETV
vector 264  RSUScenario.node[37].veinsmobility  posy  ETV
vector 265  RSUScenario.node[37].veinsmobility  speed  ETV
vector 266  RSUScenario.node[37].veinsmobility  acceleration  ETV
vector 267  RSUScenario.node[37].veinsmobility  co2emission  ETV
vector 270  RSUScenario.node[38].veinsmobility  posx  ETV
vector 271  RSUScenario.node[38].veinsmobility  posy  ETV
vector 272  RSUScenario.node[38].veinsmobility  speed  ETV
vector 273  RSUScenario.node[38].veinsmobility  acceleration  ETV
vector 274  RSUScenario.node[38].veinsmobility  co2emission  ETV
vector 277  RSUScenario.node[39].veinsmobility  posx  ETV
vector 278  RSUScenario.node[39].veinsmobility  posy  ETV
vector 279  RSUScenario.node[39].veinsmobility  speed  ETV
vector 280  RSUScenario.node[39].veinsmobility  acceleration  ETV
vector 281  RSUScenario.node[39].veinsmobility  co2emission  ETV
vector 284  RSUScenario.node[40].veinsmobility  posx  ETV
vector 285  RSUScenario.node[40].veinsmobility  posy  ETV
vector 286  RSUScenario.node[40].veinsmobility  speed  ETV
vector 287  RSUScenario.node[40].veinsmobility  acceleration  ETV
vector 288  RSUScenario.node[40].veinsmobility  co2emission  ETV
vector 291  RSUScenario.node[41].veinsmobility  posx  ETV
vector 292  RSUScenario.node[41].veinsmobility  posy  ETV
vector 293  RSUScenario.node[41].veinsmobility  speed  ETV
vector 294  RSUScenario.node[41].veinsmobility  acceleration  ETV
vector 295  RSUScenario.node[41].veinsmobility  co2emission  ETV
vector 298  RSUScenario.node[42].veinsmobility  posx  ETV
vector 299  RSUScenario.node[42].veinsmobility  posy  ETV
vector 300  RSUScenario.node[42].veinsmobility  speed  ETV
vector 301  RSUScenario.node[42].veinsmobility  acceleration  ETV
vector 302  RSUScenario.node[42].veinsmobility  co2emission  ETV
vector 305  RSUScenario.node[43].veinsmobility  posx  ETV
vector 306  RSUScenario.node[43].veinsmobility  posy  ETV
vector 307  RSUScenario.node[43].veinsmobility  speed  ETV
vector 308  RSUScenario.node[43].veinsmobility  acceleration  ETV
vector 309  RSUScenario.node[43].veinsmobility  co2emission  ETV
vector 312  RSUScenario.node[44].veinsmobility  posx  ETV
vector 313  RSUScenario.node[44].veinsmobility  posy  ETV
vector 314  RSUScenario.node[44].veinsmobility  speed  ETV
vector 315  RSUScenario.node[44].veinsmobility  acceleration  ETV
vector 316  RSUScenario.node[44].veinsmobility  co2emission  ETV
vector 319  RSUScenario.node[45].veinsmobility  posx  ETV
vector 320  RSUScenario.node[45].veinsmobility  posy  ETV
vector 321  RSUScenario.node[45].veinsmobility  speed  ETV
vector 322  RSUScenario.node[45].veinsmobility  acceleration  ETV
vector 323  RSUScenario.node[45].veinsmobility  co2emission  ETV
vector 326  RSUScenario.node[46].veinsmobility  posx  ETV
vector 327  RSUScenario.node[46].veinsmobility  posy  ETV
vector 328  RSUScenario.node[46].veinsmobility  speed  ETV
vector 329  RSUScenario.node[46].veinsmobility  acceleration  ETV
vector 330  RSUScenario.node[46].veinsmobility  co2emission  ETV
vector 333  RSUScenario.node[47].veinsmobility  posx  ETV
vector 334  RSUScenario.node[47].veinsmobility  posy  ETV
vector 335  RSUScenario.node[47].veinsmobility  speed  ETV
vector 336  RSUScenario.node[47].veinsmobility  acceleration  ETV
vector 337  RSUScenario.node[47].veinsmobility  co2emission  ETV
vector 340  RSUScenario.node[48].veinsmobility  posx  ETV
vector 341  RSUScenario.node[48].veinsmobility  posy  ETV
vector 342  RSUScenario.node[48].veinsmobility  speed  ETV
vector 343  RSUScenario.node[48].veinsmobility  acceleration  ETV
vector 344  RSUScenario.node[48].veinsmobility  co2emission  ETV
vector 347  RSUScenario.node[49].veinsmobility  posx  ETV
vector 348  RSUScenario.node[49].veinsmobility  posy  ETV
vector 349  RSUScenario.node[49].veinsmobility  speed  ETV
vector 350  RSUScenario.node[49].veinsmobility  acceleration  ETV
vector 351  RSUScenario.node[49].veinsmobility  co2emission  ETV
vector 354  RSUScenario.node[50].veinsmobility  posx  ETV
vector 355  RSUScenario.node[50].veinsmobility  posy  ETV
vector 356  RSUScenario.node[50].veinsmobility  speed  ETV
vector 357  RSUScenario.node[50].veinsmobility  acceleration  ETV
vector 358  RSUScenario.node[50].veinsmobility  co2emission  ETV
vector 361  RSUScenario.node[51].veinsmobility  posx  ETV
vector 362  RSUScenario.node[51].veinsmobility  posy  ETV
vector 363  RSUScenario.node[51].veinsmobility  speed  ETV
vector 364  RSUScenario.node[51].veinsmobility  acceleration  ETV
vector 365  RSUScenario.node[51].veinsmobility  co2emission  ETV
vector 368  RSUScenario.node[52].veinsmobility  posx  ETV
vector 369  RSUScenario.node[52].veinsmobility  posy  ETV
vector 370  RSUScenario.node[52].veinsmobility  speed  ETV
vector 371  RSUScenario.node[52].veinsmobility  acceleration  ETV
vector 372  RSUScenario.node[52].veinsmobility  co2emission  ETV
vector 375  RSUScenario.node[53].veinsmobility  posx  ETV
vector 376  RSUScenario.node[53].veinsmobility  posy  ETV
vector 377  RSUScenario.node[53].veinsmobility  speed  ETV
vector 378  RSUScenario.node[53].veinsmobility  acceleration  ETV
vector 379  RSUScenario.node[53].veinsmobility  co2emission  ETV
vector 382  RSUScenario.node[54].veinsmobility  posx  ETV
vector 383  RSUScenario.node[54].veinsmobility  posy  ETV
vector 384  RSUScenario.node[54].veinsmobility  speed  ETV
vector 385  RSUScenario.node[54].veinsmobility  acceleration  ETV
vector 386  RSUScenario.node[54].veinsmobility  co2emission  ETV
vector 389  RSUScenario.node[55].veinsmobility  posx  ETV
vector 390  RSUScenario.node[55].veinsmobility  posy  ETV
vector 391  RSUScenario.node[55].veinsmobility  speed  ETV
vector 392  RSUScenario.node[55].veinsmobility  acceleration  ETV
vector 393  RSUScenario.node[55].veinsmobility  co2emission  ETV
vector 396  RSUScenario.node[56].veinsmobility  posx  ETV
vector 397  RSUScenario.node[56].veinsmobility  posy  ETV
vector 398  RSUScenario.node[56].veinsmobility  speed  ETV
vector 399  RSUScenario.node[56].veinsmobility  acceleration  ETV
vector 400  RSUScenario.node[56].veinsmobility  co2emission  ETV
vector 403  RSUScenario.node[57].veinsmobility  posx  ETV
vector 404  RSUScenario.node[57].veinsmobility  posy  ETV
vector 405  RSUScenario.node[57].veinsmobility  speed  ETV
vector 406  RSUScenario.node[57].veinsmobility  acceleration  ETV
vector 407  RSUScenario.node[57].veinsmobility  co2emission  ETV
vector 410  RSUScenario.node[58].veinsmobility  posx  ETV
vector 411  RSUScenario.node[58].veinsmobility  posy  ETV
vector 412  RSUScenario.node[58].veinsmobility  speed  ETV
vector 413  RSUScenario.node[58].veinsmobility  acceleration  ETV
vector 414  RSUScenario.node[58].veinsmobility  co2emission  ETV
vector 417  RSUScenario.node[59].veinsmobility  posx  ETV
vector 418  RSUScenario.node[59].veinsmobility  posy  ETV
vector 419  RSUScenario.node[59].veinsmobility  speed  ETV
vector 420  RSUScenario.node[59].veinsmobility  acceleration  ETV
vector 421  RSUScenario.node[59].veinsmobility  co2emission  ETV
vector 424  RSUScenario.node[60].veinsmobility  posx  ETV
vector 425  RSUScenario.node[60].veinsmobility  posy  ETV
vector 426  RSUScenario.node[60].veinsmobility  speed  ETV
vector 427  RSUScenario.node[60].veinsmobility  acceleration  ETV
vector 428  RSUScenario.node[60].veinsmobility  co2emission  ETV
vector 431  RSUScenario.node[61].veinsmobility  posx  ETV
vector 432  RSUScenario.node[61].veinsmobility  posy  ETV
vector 433  RSUScenario.node[61].veinsmobility  speed  ETV
vector 434  RSUScenario.node[61].veinsmobility  acceleration  ETV
vector 435  RSUScenario.node[61].veinsmobility  co2emission  ETV
vector 438  RSUScenario.node[62].veinsmobility  posx  ETV
vector 439  RSUScenario.node[62].veinsmobility  posy  ETV
vector 440  RSUScenario.node[62].veinsmobility  speed  ETV
vector 441  RSUScenario.node[62].veinsmobility  acceleration  ETV
vector 442  RSUScenario.node[62].veinsmobility  co2emission  ETV
vector 445  RSUScenario.node[63].veinsmobility  posx  ETV
vector 446  RSUScenario.node[63].veinsmobility  posy  ETV
vector 447  RSUScenario.node[63].veinsmobility  speed  ETV
vector 448  RSUScenario.node[63].veinsmobility  acceleration  ETV
vector 449  RSUScenario.node[63].veinsmobility  co2emission  ETV
vector 452  RSUScenario.node[64].veinsmobility  posx  ETV
vector 453  RSUScenario.node[64].veinsmobility  posy  ETV
vector 454  RSUScenario.node[64].veinsmobility  speed  ETV
vector 455  RSUScenario.node[64].veinsmobility  acceleration  ETV
vector 456  RSUScenario.node[64].veinsmobility  co2emission  ETV
vector 459  RSUScenario.node[65].veinsmobility  posx  ETV
vector 460  RSUScenario.node[65].veinsmobility  posy  ETV
vector 461  RSUScenario.node[65].veinsmobility  speed  ETV
vector 462  RSUScenario.node[65].veinsmobility  acceleration  ETV
vector 463  RSUScenario.node[65].veinsmobility  co2emission  ETV
vector 466  RSUScenario.node[66].veinsmobility  posx  ETV
vector 467  RSUScenario.node[66].veinsmobility  posy  ETV
vector 468  RSUScenario.node[66].veinsmobility  speed  ETV
vector 469  RSUScenario.node[66].veinsmobility  acceleration  ETV
vector 470  RSUScenario.node[66].veinsmobility  co2emission  ETV
vector 473  RSUScenario.node[67].veinsmobility  posx  ETV
vector 474  RSUScenario.node[67].veinsmobility  posy  ETV
vector 475  RSUScenario.node[67].veinsmobility  speed  ETV
vector 476  RSUScenario.node[67].veinsmobility  acceleration  ETV
vector 477  RSUScenario.node[67].veinsmobility  co2emission  ETV
vector 480  RSUScenario.node[68].veinsmobility  posx  ETV
vector 481  RSUScenario.node[68].veinsmobility  posy  ETV
vector 482  RSUScenario.node[68].veinsmobility  speed  ETV
vector 483  RSUScenario.node[68].veinsmobility  acceleration  ETV
vector 484  RSUScenario.node[68].veinsmobility  co2emission  ETV
vector 487  RSUScenario.node[69].veinsmobility  posx  ETV
vector 488  RSUScenario.node[69].veinsmobility  posy  ETV
vector 489  RSUScenario.node[69].veinsmobility  speed  ETV
vector 490  RSUScenario.node[69].veinsmobility  acceleration  ETV
vector 491  RSUScenario.node[69].veinsmobility  co2emission  ETV
vector 494  RSUScenario.node[70].veinsmobility  posx  ETV
vector 495  RSUScenario.node[70].veinsmobility  posy  ETV
vector 496  RSUScenario.node[70].veinsmobility  speed  ETV
vector 497  RSUScenario.node[70].veinsmobility  acceleration  ETV
vector 498  RSUScenario.node[70].veinsmobility  co2emission  ETV
vector 501  RSUScenario.node[71].veinsmobility  posx  ETV
vector 502  RSUScenario.node[71].veinsmobility  posy  ETV
vector 503  RSUScenario.node[71].veinsmobility  speed  ETV
vector 504  RSUScenario.node[71].veinsmobility  acceleration  ETV
vector 505  RSUScenario.node[71].veinsmobility  co2emission  ETV
vector 508  RSUScenario.node[72].veinsmobility  posx  ETV
vector 509  RSUScenario.node[72].veinsmobility  posy  ETV
vector 510  RSUScenario.node[72].veinsmobility  speed  ETV
vector 511  RSUScenario.node[72].veinsmobility  acceleration  ETV
vector 512  RSUScenario.node[72].veinsmobility  co2emission  ETV
15	22582 56229 34 12375 3.3 218.5 2153 -0.63992704512948 20.737200081821 7697.7317084123 48385.069164383
14	78811 64113 34 12375 3.3 218.5 2153 -4.5 2.6 93.041753119818 4584.1636384887
13	142924 62288 33 12375 3.2 218.5 2154 0.25157376560476 27.779905529385 34043.987328409 611263.90243563
12	205212 62270 32 12375 3.1 218.5 2155 1216.1342303623 2120.9311103765 3435329.5249116 5649977316.867
11	267482 62294 32 12375 3.1 218.5 2155 200.94394449447 2450.6048041072 3171960.9495176 6050167070.4698
vector 515  RSUScenario.node[73].veinsmobility  posx  ETV
vector 516  RSUScenario.node[73].veinsmobility  posy  ETV
vector 517  RSUScenario.node[73].veinsmobility  speed  ETV
vector 518  RSUScenario.node[73].veinsmobility  acceleration  ETV
vector 519  RSUScenario.node[73].veinsmobility  co2emission  ETV
vector 522  RSUScenario.node[74].veinsmobility  posx  ETV
vector 523  RSUScenario.node[74].veinsmobility  posy  ETV
vector 524  RSUScenario.node[74].veinsmobility  speed  ETV
vector 525  RSUScenario.node[74].veinsmobility  acceleration  ETV
vector 526  RSUScenario.node[74].veinsmobility  co2emission  ETV
22	330388 56583 64 12419 6.3 222.9 2167 -0.6987546918464 20.636762227105 7655.5490654374 47493.333853003
21	386971 64680 64 12419 6.3 222.9 2167 -4.5 2.6 95.446565883797 4397.4681666199
20	451651 62868 63 12419 6.2 222.9 2168 0.25726502669835 27.779395475965 34048.589098517 608400.04466354
19	514519 62866 62 12419 6.1 222.9 2169 1216.122121661 2120.9422584688 3459977.2467165 5695216837.5729
18	577385 62867 62 12419 6.1 222.9 2169 200.54694994888 2450.617273305 3195136.9725331 6097400693.4208
vector 529  RSUScenario.node[75].veinsmobility  posx  ETV
vector 530  RSUScenario.node[75].veinsmobility  posy  ETV
vector 531  RSUScenario.node[75].veinsmobility  speed  ETV
vector 532  RSUScenario.node[75].veinsmobility  acceleration  ETV
vector 533  RSUScenario.node[75].veinsmobility  co2emission  ETV
29	640558 56658 94 12458 9.3 226.6 2174 -0.71135247543112 20.090476405711 7705.6253658031 48228.310911354
28	697216 65053 94 12458 9.3 226.6 2174 -4.5 2.6 92.837767436535 4412.4029784263
27	762269 63227 93 12458 9.2 226.6 2175 0.24904955297103 27.779797694366 34037.424327876 608031.48243701
26	825496 63244 92 12458 9.1 226.6 2176 1216.1136642378 2120.9487723326 3468026.3790025 5702958274.1006
25	888740 63256 92 12458 9.1 226.6 2176 201.02051407658 2450.6155078359 3198848.3748273 6104204288.2132
vector 536  RSUScenario.node[76].veinsmobility  posx  ETV
vector 537  RSUScenario.node[76].veinsmobility  posy  ETV
vector 538  RSUScenario.node[76].veinsmobility  speed  ETV
vector 539  RSUScenario.node[76].veinsmobility  acceleration  ETV
vector 540  RSUScenario.node[76].veinsmobility  co2emission  ETV
36	952302 57066 124 12495 12.3 230.3 2181 -0.41121086826287 20.489897895667 7679.891008597 48098.428779881
35	1009368 65411 124 12495 12.3 230.3 2181 -4.5 2.6 94.203243181418 4381.7528419226
34	1074779 63542 123 12495 12.2 230.3 2182 0.25788759189239 27.779831382905 34043.892532097 606544.39563848
33	1138321 63547 122 12495 12.1 230.3 2183 1216.1283231508 2120.9692796711 3482617.0545334 5733001403.2187
32	1201868 63552 122 12495 12.1 230.3 2183 200.96374675899 2450.6585799262 3216183.0272954 6142670987.605
vector 543  RSUScenario.node[77].veinsmobility  posx  ETV
vector 544  RSUScenario.node[77].veinsmobility  posy  ETV
vector 545  RSUScenario.node[77].veinsmobility  speed  ETV
vector 546  RSUScenario.node[77].veinsmobility  acceleration  ETV
vector 547  RSUScenario.node[77].veinsmobility  co2emission  ETV
43	1265726 57281 154 12530 15.3 233.8 2186 -0.8198718988791 19.601735615469 7642.03513217 47184.25734117
42	1323007 65634 154 12530 15.3 233.8 2186 -4.5 2.6 92.032102441885 4300.7629645453
41	1388641 63788 153 12530 15.2 233.8 2187 0.25719840018917 27.779616878941 34042.924299669 605769.91513059
40	1452429 63804 152 12530 15.1 233.8 2188 1216.1249595731 2120.9061603835 3491037.4802542 5747722390.5769
39	1516233 63827 152 12530 15.1 233.8 2188 201.03214524616 2450.6478872253 3223324.4256651 6157357739.0844
vector 550  RSUScenario.node[78].veinsmobility  posx  ETV
vector 551  RSUScenario.node[78].veinsmobility  posy  ETV
vector 552  RSUScenario.node[78].veinsmobility  speed  ETV
vector 553  RSUScenario.node[78].veinsmobility  acceleration  ETV
vector 554  RSUScenario.node[78].veinsmobility  co2emission  ETV
vector 557  RSUScenario.node[79].veinsmobility  posx  ETV
vector 558  RSUScenario.node[79].veinsmobility  posy  ETV
50	1580482 57377 184 12563 18.3 237.1 2189 -0.60716625500732 20.141059667409 7682.8643288634 47826.482173405
49	1637859 65792 184 12563 18.3 237.1 2189 -4.5 2.6 93.718798733051 4302.6770074796
48	1703651 63949 183 12563 18.2 237.1 2190 0.25275420577498 27.779541870125 34037.968428076 606031.02557898
47	1767600 63961 182 12563 18.1 237.1 2191 1216.1326732663 2120.920033142 3494000.8244382 5749292621.9143
46	1831561 63965 182 12563 18.1 237.1 2191 200.77876868891 2450.6226906163 3223461.5417975 6156568996.5761
vector 559  RSUScenario.node[79].veinsmobility  speed  ETV
vector 560  RSUScenario.node[79].veinsmobility  acceleration  ETV
vector 561  RSUScenario.node[79].veinsmobility  co2emission  ETV
vector 564  RSUScenario.node[80].veinsmobility  posx  ETV
vector 565  RSUScenario.node[80].veinsmobility  posy  ETV
vector 566  RSUScenario.node[80].veinsmobility  speed  ETV
vector 567  RSUScenario.node[80].veinsmobility  acceleration  ETV
vector 568  RSUScenario.node[80].veinsmobility  co2emission  ETV
57	1896022 57570 214 12597 21.3 240.5 2193 -0.80900994520928 20.478568937467 7720.708210194 48318.720263566
56	1953592 65999 214 12597 21.3 240.5 2193 -4.5 2.6 93.422167402928 4366.4230759885
55	2019591 64182 213 12597 21.2 240.5 2194 0.25468229677505 27.779347988768 34044.792547106 605393.57310448
54	2083773 64182 212 12597 21.1 240.5 2195 1216.1297714952 2120.9670316661 3502606.2214509 5767447811.5021
53	2147955 64207 212 12597 21.1 240.5 2195 200.87430281693 2450.6362493003 3234742.4766447 6182017644.9161
vector 571  RSUScenario.node[81].veinsmobility  posx  ETV
vector 572  RSUScenario.node[81].veinsmobility  posy  ETV
vector 573  RSUScenario.node[81].veinsmobility  speed  ETV
vector 574  RSUScenario.node[81].veinsmobility  acceleration  ETV
vector 575  RSUScenario.node[81].veinsmobility  co2emission  ETV
64	2212468 57795 244 12631 24.3 243.9 2197 -0.8118512489865 19.364256527421 7725.0287729388 48585.481340709
63	2270263 66164 244 12631 24.3 243.9 2197 -4.5 2.6 94.005202419732 4379.8068712571
62	2336427 64361 243 12631 24.2 243.9 2198 0.25219490096346 27.778538198648 34046.604140289 604742.95512632
61	2400788 64423 242 12631 24.1 243.9 2199 1216.130896993 2120.9571548598 3508655.1252635 5777132526.2329
60	2465211 64410 242 12631 24.1 243.9 2199 200.71427106205 2450.6254087816 3239333.537087 6190527838.8548
vector 578  RSUScenario.node[82].veinsmobility  posx  ETV
vector 579  RSUScenario.node[82].veinsmobility  posy  ETV
vector 580  RSUScenario.node[82].veinsmobility  speed  ETV
vector 581  RSUScenario.node[82].veinsmobility  acceleration  ETV
vector 582  RSUScenario.node[82].veinsmobility  co2emission  ETV
71	2529927 57739 274 12664 27.3 247.2 2200 -0.64732068515923 21.3910106686 7744.7619561718 48341.613182803
70	2587666 66375 274 12664 27.3 247.2 2200 -4.5 2.6 94.552315029256 4363.050380594