version 2
run nodebugBeaconLength400ServicePacket1000-0-20150615-10:35:55-7987
attr configname nodebugBeaconLength400ServicePacket1000
attr datetime 20150615-10:35:55
attr experiment nodebugBeaconLength400ServicePacket1000
attr inifile omnetpp.ini
attr iterationvars $0=1
attr iterationvars2 "$0=1, $repetition=0"
attr measurement $0=1
attr network RSUScenario
attr processid 7987
attr repetition 0
attr replication #0
attr resultdir results
attr runnumber 0
attr seedset 0

vector 6  RSUScenario.node[0].veinsmobility  posx  ETV
vector 7  RSUScenario.node[0].veinsmobility  posy  ETV
vector 8  RSUScenario.node[0].veinsmobility  speed  ETV
vector 9  RSUScenario.node[0].veinsmobility  acceleration  ETV
vector 10  RSUScenario.node[0].veinsmobility  co2emission  ETV
vector 13  RSUScenario.node[1].veinsmobility  posx  ETV
vector 14  RSUScenario.node[1].veinsmobility  posy  ETV
vector 15  RSUScenario.node[1].veinsmobility  speed  ETV
vector 16  RSUScenario.node[1].veinsmobility  acceleration  ETV
vector 17  RSUScenario.node[1].veinsmobility  co2emission  ETV
vector 20  RSUScenario.node[2].veinsmobility  posx  ETV
vector 21  RSUScenario.node[2].veinsmobility  posy  ETV
vector 22  RSUScenario.node[2].veinsmobility  speed  ETV
vector 23  RSUScenario.node[2].veinsmobility  acceleration  ETV
vector 24  RSUScenario.node[2].veinsmobility  co2emission  ETV
vector 27  RSUScenario.node[3].veinsmobility  posx  ETV
vector 28  RSUScenario.node[3].veinsmobility  posy  ETV
vector 29  RSUScenario.node[3].veinsmobility  speed  ETV
vector 30  RSUScenario.node[3].veinsmobility  acceleration  ETV
vector 31  RSUScenario.node[3].veinsmobility  co2emission  ETV
vector 34  RSUScenario.node[4].veinsmobility  posx  ETV
vector 35  RSUScenario.node[4].veinsmobility  posy  ETV
vector 36  RSUScenario.node[4].veinsmobility  speed  ETV
vector 37  RSUScenario.node[4].veinsmobility  acceleration  ETV
vector 38  RSUScenario.node[4].veinsmobility  co2emission  ETV
vector 41  RSUScenario.node[5].veinsmobility  posx  ETV
vector 42  RSUScenario.node[5].veinsmobility  posy  ETV
vector 43  RSUScenario.node[5].veinsmobility  speed  ETV
vector 44  RSUScenario.node[5].veinsmobility  acceleration  ETV
vector 45  RSUScenario.node[5].veinsmobility  co2emission  ETV
vector 48  RSUScenario.node[6].veinsmobility  posx  ETV
vector 49  RSUScenario.node[6].veinsmobility  posy  ETV
vector 50  RSUScenario.node[6].veinsmobility  speed  ETV
vector 51  RSUScenario.node[6].veinsmobility  acceleration  ETV
vector 52  RSUScenario.node[6].veinsmobility  co2emission  ETV
vector 55  RSUScenario.node[7].veinsmobility  posx  ETV
vector 56  RSUScenario.node[7].veinsmobility  posy  ETV
vector 57  RSUScenario.node[7].veinsmobility  speed  ETV
vector 58  RSUScenario.node[7].veinsmobility  acceleration  ETV
vector 59  RSUScenario.node[7].veinsmobility  co2emission  ETV
vector 62  RSUScenario.node[8].veinsmobility  posx  ETV
vector 63  RSUScenario.node[8].veinsmobility  posy  ETV
vector 64  RSUScenario.node[8].veinsmobility  speed  ETV
vector 65  RSUScenario.node[8].veinsmobility  acceleration  ETV
vector 66  RSUScenario.node[8].veinsmobility  co2emission  ETV
vector 69  RSUScenario.node[9].veinsmobility  posx  ETV
vector 70  RSUScenario.node[9].veinsmobility  posy  ETV
vector 71  RSUScenario.node[9].veinsmobility  speed  ETV
vector 72  RSUScenario.node[9].veinsmobility  acceleration  ETV
vector 73  RSUScenario.node[9].veinsmobility  co2emission  ETV
vector 76  RSUScenario.node[10].veinsmobility  posx  ETV
vector 77  RSUScenario.node[10].veinsmobility  posy  ETV
vector 78  RSUScenario.node[10].veinsmobility  speed  ETV
vector 79  RSUScenario.node[10].veinsmobility  acceleration  ETV
vector 80  RSUScenario.node[10].veinsmobility  co2emission  ETV
vector 83  RSUScenario.node[11].veinsmobility  posx  ETV
vector 84  RSUScenario.node[11].veinsmobility  posy  ETV
vector 85  RSUScenario.node[11].veinsmobility  speed  ETV
vector 86  RSUScenario.node[11].veinsmobility  acceleration  ETV
vector 87  RSUScenario.node[11].veinsmobility  co2emission  ETV
vector 90  RSUScenario.node[12].veinsmobility  posx  ETV
vector 91  RSUScenario.node[12].veinsmobility  posy  ETV
vector 92  RSUScenario.node[12].veinsmobility  speed  ETV
vector 93  RSUScenario.node[12].veinsmobility  acceleration  ETV
vector 94  RSUScenario.node[12].veinsmobility  co2emission  ETV
vector 97  RSUScenario.node[13].veinsmobility  posx  ETV
vector 98  RSUScenario.node[13].veinsmobility  posy  ETV
vector 99  RSUScenario.node[13].veinsmobility  speed  ETV
vector 100  RSUScenario.node[13].veinsmobility  acceleration  ETV
vector 101  RSUScenario.node[13].veinsmobility  co2emission  ETV
vector 104  RSUScenario.node[14].veinsmobility  posx  ETV
vector 105  RSUScenario.node[14].veinsmobility  posy  ETV
vector 106  RSUScenario.node[14].veinsmobility  speed  ETV
vector 107  RSUScenario.node[14].veinsmobility  acceleration  ETV
vector 108  RSUScenario.node[14].veinsmobility  co2emission  ETV
vector 111  RSUScenario.node[15].veinsmobility  posx  ETV
vector 112  RSUScenario.node[15].veinsmobility  posy  ETV
vector 113  RSUScenario.node[15].veinsmobility  speed  ETV
vector 114  RSUScenario.node[15].veinsmobility  acceleration  ETV
vector 115  RSUScenario.node[15].veinsmobility  co2emission  ETV
vector 118  RSUScenario.node[16].veinsmobility  posx  ETV
vector 119  RSUScenario.node[16].veinsmobility  posy  ETV
vector 120  RSUScenario.node[16].veinsmobility  speed  ETV
vector 121  RSUScenario.node[16].veinsmobility  acceleration  ETV
vector 122  RSUScenario.node[16].veinsmobility  co2emission  ETV
vector 125  RSUScenario.node[17].veinsmobility  posx  ETV
vector 126  RSUScenario.node[17].veinsmobility  posy  ETV
vector 127  RSUScenario.node[17].veinsmobility  speed  ETV
vector 128  RSUScenario.node[17].veinsmobility  acceleration  ETV
vector 129  RSUScenario.node[17].veinsmobility  co2emission  ETV
vector 132  RSUScenario.node[18].veinsmobility  posx  ETV
vector 133  RSUScenario.node[18].veinsmobility  posy  ETV
vector 134  RSUScenario.node[18].veinsmobility  speed  ETV
vector 135  RSUScenario.node[18].veinsmobility  acceleration  ETV
vector 136  RSUScenario.node[18].veinsmobility  co2emission  ETV
vector 139  RSUScenario.node[19].veinsmobility  posx  ETV
vector 140  RSUScenario.node[19].veinsmobility  posy  ETV
vector 141  RSUScenario.node[19].veinsmobility  speed  ETV
vector 142  RSUScenario.node[19].veinsmobility  acceleration  ETV
vector 143  RSUScenario.node[19].veinsmobility  co2emission  ETV
vector 146  RSUScenario.node[20].veinsmobility  posx  ETV
vector 147  RSUScenario.node[20].veinsmobility  posy  ETV
vector 148  RSUScenario.node[20].veinsmobility  speed  ETV
vector 149  RSUScenario.node[20].veinsmobility  acceleration  ETV
vector 150  RSUScenario.node[20].veinsmobility  co2emission  ETV
vector 153  RSUScenario.node[21].veinsmobility  posx  ETV
vector 154  RSUScenario.node[21].veinsmobility  posy  ETV
vector 155  RSUScenario.node[21].veinsmobility  speed  ETV
vector 156  RSUScenario.node[21].veinsmobility  acceleration  ETV
vector 157  RSUScenario.node[21].veinsmobility  co2emission  ETV
vector 160  RSUScenario.node[22].veinsmobility  posx  ETV
vector 161  RSUScenario.node[22].veinsmobility  posy  ETV
vector 162  RSUScenario.node[22].veinsmobility  speed  ETV
vector 163  RSUScenario.node[22].veinsmobility  acceleration  ETV
vector 164  RSUScenario.node[22].veinsmobility  co2emission  ETV
vector 167  RSUScenario.node[23].veinsmobility  posx  ETV
vector 168  RSUScenario.node[23].veinsmobility  posy  ETV
vector 169  RSUScenario.node[23].veinsmobility  speed  ETV
vector 170  RSUScenario.node[23].veinsmobility  acceleration  ETV
vector 171  RSUScenario.node[23].veinsmobility  co2emission  ETV
vector 174  RSUScenario.node[24].veinsmobility  posx  ETV
vector 175  RSUScenario.node[24].veinsmobility  posy  ETV
vector 176  RSUScenario.node[24].veinsmobility  speed  ETV
vector 177  RSUScenario.node[24].veinsmobility  acceleration  ETV
vector 178  RSUScenario.node[24].veinsmobility  co2emission  ETV
vector 181  RSUScenario.node[25].veinsmobility  posx  ETV
vector 182  RSUScenario.node[25].veinsmobility  posy  ETV
vector 183  RSUScenario.node[25].veinsmobility  speed  ETV
vector 184  RSUScenario.node[25].veinsmobility  acceleration  ETV
vector 185  RSUScenario.node[25].veinsmobility  co2emission  ETV
10	17	0.3	1.4276208928798
10	24	0.4	1.5553504369406
10	31	0.5	1.6547258140606
10	38	0.6	1.7983555805977
10	45	0.7	1.8323674505787
10	52	0.8	2.0110897446338
10	59	0.9	1.970451684244
10	66	1	2.244901373431
10	73	1.1	2.4421706011754
10	80	1.2	2.4717715676129
10	87	1.3	2.490349205784
10	94	1.4	2.2994080593078
10	101	1.5	2.3468535114061
10	108	1.6	2.7053334192829
10	115	1.7	2.8574764905214
10	122	1.8	2.8588199149409
10	129	1.9	3.1676838080974
10	136	2	2.6009220560927
10	143	2.1	2.7723105548446
10	150	2.2	3.8986610817445
10	157	2.3	3.6671258926679
10	164	2.4	4.1807605214643
10	171	2.5	3.4338915063861
10	178	2.6	4.5723271031368
10	185	2.7	4.1299897267081
10	192	2.8	3.4124425662709
10	200	2.9	3.2489176409252
10	209	3	4.8520098524822
10	218	3.1	3.5633251988539
10	227	3.2	4.4211728537212
10	236	3.3	3.8484153059004
10	245	3.4	4.5116338182601
10	254	3.5	4.2658392269684
10	263	3.6	4.2541725649791
10	272	3.7	4.6485625440965
10	281	3.8	4.8471630181619
10	290	3.9	4.4136323451218
10	299	4	6.1029019402357
10	308	4.1	5.3219589523285
10	317	4.2	6.1837500805286
10	326	4.3	4.8539848404845
10	335	4.4	6.3546469284639
10	344	4.5	6.7307673571597
10	353	4.6	6.3402979547281
10	363	4.7	6.9891496740825
10	374	4.8	5.7265026195677
10	385	4.9	4.9423854913865
10	396	5	6.6959280581874
10	407	5.1	5.0920906261658
10	418	5.2	7.883052467471
10	429	5.3	6.0800520865232
10	440	5.4	7.6647565404651
10	451	5.5	5.9495607663829
10	462	5.6	7.3787696783557
10	473	5.7	8.6733952170139
10	484	5.8	5.3883612910766
10	495	5.9	6.6699958985335
10	506	6	8.6022631925551
10	517	6.1	7.1507565035702
10	528	6.2	7.6965744626944
10	539	6.3	7.1916959240849
10	551	6.4	9.3406367694788
10	564	6.5	9.3947950170629
10	577	6.6	8.5979091327809
10	590	6.7	9.8774083418551
10	603	6.8	10.05345950933
10	616	6.9	8.5910109613346
10	629	7	5.169274022467
10	642	7.1	4.4877857934717
10	655	7.2	1.673892382931
10	668	7.3	2.0324290376472
10	681	7.4	0.973
10	694	7.5	0.973
10	707	7.6	3.8780434918413
10	720	7.7	2.771816397475
10	733	7.8	0.973
10	746	7.9	3.151356736179
10	759	8	1.8067289731944
10	773	8.1	4.3412821128401
10	788	8.2	2.1047344347931
10	803	8.3	0.973
10	818	8.4	3.7135353988554
10	833	8.5	0.973
10	848	8.6	1.7476935912992
10	863	8.7	2.8528657162343
10	878	8.8	3.4646031600708
10	893	8.9	0.973
10	908	9	2.3848603591386
10	923	9.1	0.973
10	938	9.2	4.172820004963
10	953	9.3	0.973
10	968	9.4	1.5440728821739
10	983	9.5	2.443725517022
10	998	9.6	4.2659016915528
10	1013	9.7	0.973
10	1029	9.8	0.973
10	1046	9.9	0.973
10	1063	10	0.973
10	1081	10.1	0.973
10	1098	10.2	0.973
10	1115	10.3	0.973
10	1132	10.4	0.973
10	1149	10.5	0.973
10	1166	10.6	0.973
10	1183	10.7	0.973
10	1200	10.8	0.973
10	1217	10.9	0.973
10	1234	11	0.973
10	1251	11.1	0.973
10	1268	11.2	0.973
10	1285	11.3	0.973
10	1302	11.4	0.973
10	1319	11.5	0.973
10	1336	11.6	0.973
10	1353	11.7	0.973
10	1370	11.8	0.973
10	1387	11.9	0.973
10	1404	12	0.973
10	1421	12.1	0.973
10	1438	12.2	0.973
10	1455	12.3	0.973
10	1473	12.4	0.973
10	1492	12.5	0.973
10	1511	12.6	0.973
10	1530	12.7	0.973
10	1549	12.8	0.973
10	1568	12.9	0.973
10	1587	13	0.973
10	1606	13.1	0.973
10	1625	13.2	0.973
10	1644	13.3	0.973
10	1663	13.4	0.973
10	1682	13.5	0.973
10	1701	13.6	0.973
10	1720	13.7	0.973
10	1739	13.8	0.973
10	1758	13.9	0.973
10	1777	14	0.973
10	1796	14.1	0.973
10	1815	14.2	0.973
10	1834	14.3	0.973
10	1853	14.4	0.973
10	1872	14.5	0.973
10	1891	14.6	0.973
10	1910	14.7	0.973
10	1929	14.8	0.973
10	1948	14.9	0.973
10	1968	15	0.973
10	1989	15.1	0.973
10	2010	15.2	0.973
10	2031	15.3	0.973
10	2052	15.4	0.973
10	2073	15.5	0.973
10	2094	15.6	0.973
10	2115	15.7	0.973
10	2136	15.8	0.973
10	2157	15.9	0.973
10	2178	16	0.973
10	2199	16.1	0.973
10	2220	16.2	0.973
10	2241	16.3	0.973
10	2262	16.4	0.973
10	2283	16.5	0.973
10	2304	16.6	0.973
10	2325	16.7	0.973
10	2346	16.8	0.973
10	2367	16.9	0.973
10	2388	17	0.973
10	2409	17.1	0.973
10	2430	17.2	0.973
10	2451	17.3	0.973
10	2472	17.4	0.973
10	2493	17.5	0.973
10	2515	17.6	0.973
10	2538	17.7	0.973
10	2561	17.8	0.973
10	2584	17.9	0.973
10	2607	18	0.973
10	2630	18.1	0.973
10	2653	18.2	0.973
10	2676	18.3	0.973
10	2699	18.4	0.973
10	2722	18.5	0.973
10	2745	18.6	0.973
10	2768	18.7	0.973
10	2791	18.8	0.973
10	2814	18.9	0.973
10	2837	19	0.973
10	2860	19.1	0.973
10	2883	19.2	0.973
10	2906	19.3	0.973
10	2929	19.4	0.973
10	2952	19.5	0.973
10	2975	19.6	0.973
10	2998	19.7	0.973
10	3021	19.8	0.973
10	3044	19.9	0.973
10	3067	20	0.973
10	3090	20.1	0.973
10	3114	20.2	0.973
10	3139	20.3	0.973
10	3164	20.4	0.973
10	3189	20.5	0.973
10	3214	20.6	0.973
10	3239	20.7	0.973
10	3264	20.8	0.973
10	3289	20.9	0.973
10	3314	21	0.973
10	3339	21.1	0.973
10	3364	21.2	0.973
10	3389	21.3	0.973
10	3414	21.4	0.973
10	3439	21.5	0.973
10	3464	21.6	0.973
10	3489	21.7	0.973
10	3514	21.8	0.973
10	3539	21.9	0.973
10	3564	22	0.973
10	3589	22.1	0.973
10	3614	22.2	0.973
10	3639	22.3	0.973
10	3664	22.4	0.973
10	3689	22.5	0.973
10	3714	22.6	0.973
10	4385	22.7	0.973
10	4410	22.8	0.973
10	4436	22.9	0.973
10	4463	23	0.973
10	4490	23.1	0.973
10	4517	23.2	0.973
10	4544	23.3	0.973
10	4571	23.4	0.973
10	4598	23.5	0.973
10	4625	23.6	0.973
10	4717	23.7	0.973
10	4744	23.8	0.973
10	4771	23.9	0.973
10	4798	24	0.973
10	4825	24.1	0.973
10	4852	24.2	0.973
10	4879	24.3	0.973
10	4906	24.4	0.973
10	4933	24.5	0.973
10	4960	24.6	0.973
10	4987	24.7	0.973
10	5014	24.8	0.973
10	5041	24.9	0.973
10	5068	25	0.973
10	5095	25.1	0.973
10	5122	25.2	0.973
10	5149	25.3	0.973
10	5176	25.4	0.973
10	5204	25.5	0.973
10	5233	25.6	0.973
10	5262	25.7	0.973
10	5291	25.8	0.973
10	5320	25.9	0.973
10	5349	26	0.973
10	5378	26.1	0.973
10	5407	26.2	0.973
10	5436	26.3	0.973
10	5465	26.4	0.973
10	5494	26.5	0.973
10	5523	26.6	0.973
10	5552	26.7	0.973
10	5581	26.8	0.973
10	5610	26.9	0.973
10	5639	27	0.973
10	5668	27.1	0.973
10	5697	27.2	0.973
10	5726	27.3	0.973
10	5755	27.4	0.973
10	5784	27.5	0.973
10	5813	27.6	0.973
10	5842	27.7	0.973
10	5871	27.8	0.973
10	5900	27.9	0.973
10	5929	28	0.973
10	5959	28.1	0.973
10	5990	28.2	0.973
10	6021	28.3	0.973
10	6052	28.4	0.973
10	6083	28.5	0.973
10	6114	28.6	0.973
10	6145	28.7	0.973
10	6176	28.8	0.973
10	6207	28.9	0.973
10	6238	29	0.973
10	6269	29.1	0.973
10	6300	29.2	0.973
10	6331	29.3	0.973
10	6362	29.4	0.973
10	6393	29.5	0.973
10	6424	29.6	0.973
10	6455	29.7	0.973
10	6486	29.8	0.973
10	6517	29.9	0.973
10	6548	30	0.973
10	6579	30.1	0.973
10	6610	30.2	0.973
10	6641	30.3	0.973
10	6672	30.4	0.973
10	6703	30.5	0.973
10	6734	30.6	0.973
10	6765	30.7	0.973
10	6796	30.8	0.973
10	6828	30.9	0.973
10	6861	31	0.973
10	6894	31.1	0.973
10	6927	31.2	0.973
10	6960	31.3	0.973
10	6993	31.4	0.973
10	7026	31.5	0.973
10	7059	31.6	0.973
10	7092	31.7	0.973
10	7125	31.8	0.973
10	7158	31.9	0.973
10	7191	32	0.973
10	7224	32.1	0.973
10	7257	32.2	0.973
10	7290	32.3	0.973
10	7323	32.4	0.973
10	7356	32.5	0.973
10	7389	32.6	0.973
10	7422	32.7	0.973
10	7456	32.8	0.973
10	7489	32.9	0.973
10	7522	33	0.973
10	7555	33.1	0.973
10	7588	33.2	0.973
10	7621	33.3	0.973
10	7654	33.4	0.973
10	7687	33.5	0.973
10	7720	33.6	0.973
10	7753	33.7	0.973
10	7786	33.8	0.973
10	7819	33.9	0.973
10	7852	34	0.973
10	7885	34.1	0.973
10	7918	34.2	0.973
10	7951	34.3	0.973
10	7984	34.4	0.973
10	8017	34.5	0.973
10	8050	34.6	0.973
10	8083	34.7	0.973
10	8116	34.8	0.973
10	8149	34.9	0.973
10	8182	35	0.973
10	8215	35.1	0.973
10	8248	35.2	0.973
10	8281	35.3	0.973
10	8315	35.4	0.973
10	8350	35.5	0.973
10	8385	35.6	0.973
10	8420	35.7	0.973
10	8455	35.8	0.973
10	8490	35.9	0.973
10	8525	36	0.973
10	8560	36.1	0.973
10	8595	36.2	0.973
10	8630	36.3	0.973
10	8665	36.4	0.973
10	8700	36.5	0.973
10	8735	36.6	0.973
10	8770	36.7	0.973
10	8805	36.8	0.973
10	8840	36.9	0.973
10	8875	37	0.973
10	8910	37.1	0.973
10	8945	37.2	0.973
10	8980	37.3	0.973
10	9015	37.4	0.973
10	9050	37.5	0.973
10	9085	37.6	0.973
10	9120	37.7	0.973
10	9155	37.8	0.973
10	9190	37.9	0.973
10	9225	38	0.973
10	9260	38.1	0.973
10	9295	38.2	0.973
10	9330	38.3	0.973
10	9365	38.4	0.973
10	9400	38.5	0.973
10	9435	38.6	0.973
10	9470	38.7	0.973
10	9505	38.8	0.973
10	9540	38.9	0.973
10	9575	39	0.973
10	9610	39.1	0.973
10	9645	39.2	0.973
10	9680	39.3	0.973
10	9715	39.4	0.973
10	9750	39.5	0.973
10	9785	39.6	0.973
10	9820	39.7	0.973
10	9855	39.8	0.973
10	9890	39.9	0.973
10	9925	40	0.973
10	9961	40.1	1.2750781150749
10	9996	40.2	1.4254705230945
10	10031	40.3	1.5402144102437
10	10066	40.4	1.6404895746577
10	10101	40.5	1.7195183834292
10	10136	40.6	1.8631456232522
10	10171	40.7	2.0525553865924
10	10206	40.8	2.2805496084028
10	10241	40.9	2.1659271329416
10	10276	41	2.1283262399711
10	10311	41.1	2.6539024800851
10	10346	41.2	2.7860399148648
10	10381	41.3	2.3635924641664
10	10876	41.4	2.7562863068774
10	10911	41.5	2.7061478490513
10	10946	41.6	2.5787806733318
10	10981	41.7	3.4315864466929
10	11016	41.8	3.4973240905167
10	11051	41.9	3.893255096763
10	11086	42	2.8938041852353
10	11121	42.1	2.763087962044
10	11156	42.2	1.3605320837293
10	11191	42.3	0.973
10	11296	42.4	0.973
10	11331	42.5	0.973
10	11366	42.6	0.973
10	11401	42.7	0.973
10	11436	42.8	3.5409030206584
10	11471	42.9	3.7173620860841
10	11506	43	3.8939656250086
10	11541	43.1	4.0707233793391
10	11576	43.2	4.2476450909827
10	11611	43.3	4.4247405018467
10	11646	43.4	4.6020193538382
10	11681	43.5	4.7794913888644
10	11716	43.6	4.9571663488324
10	11751	43.7	4.8741434910566
10	11786	43.8	4.815921060711
10	11821	43.9	4.3262405320259
10	11856	44	4.1663288354089
10	11891	44.1	5.1989741732343
10	11926	44.2	3.6474243337616
10	11961	44.3	3.8480609223353
10	11996	44.4	4.5015125003461
10	12031	44.5	4.1480644087745
10	12066	44.6	4.0541535519862
10	12101	44.7	4.4153220715045
10	12136	44.8	4.9282575055504
10	12171	44.9	4.0951744572554
10	12206	45	6.389472601992
10	12241	45.1	4.2739997508959
10	12276	45.2	5.3767594919354
10	12311	45.3	4.457039894089
10	12346	45.4	6.5148461459226
10	12381	45.5	4.5355683204801
10	12416	45.6	6.7335880997167
10	12451	45.7	7.2238398503622
10	12486	45.8	5.6853581609779
10	12521	45.9	7.6449903951846
10	12556	46	7.426353422874
10	12591	46.1	7.2883253966333
10	12626	46.2	6.4162772789116
10	12661	46.3	7.8677986782715
10	12696	46.4	6.8023024937713
10	12731	46.5	7.3675565262703
10	12766	46.6	6.8515121522048
10	12801	46.7	8.0183487989789
10	12836	46.8	6.5345955116644
10	12871	46.9	7.0275138800862
10	12906	47	7.2854320837454
10	12941	47.1	6.8322645823567
10	12976	47.2	9.4817721646682
10	13011	47.3	8.2298683615886
10	13046	47.4	7.7071088387817
10	13081	47.5	8.2418461940176
10	13116	47.6	9.8411686726519
10	13151	47.7	8.0765748626398
10	13186	47.8	9.8587036355814
10	13221	47.9	1.952768978474
10	13256	48	2.627060172516
10	13291	48.1	1.5353764680815
10	13326	48.2	1.7387348993824
10	13361	48.3	1.2635562464919
10	13396	48.4	5.9793060784054
10	13431	48.5	0.973
10	13466	48.6	3.4034871561044
10	13501	48.7	3.7683211329193
10	13536	48.8	0.973
10	13571	48.9	4.9335919267093
10	13606	49	1.9873544546242
10	13641	49.1	0.973
10	13676	49.2	2.7767957869797
10	13711	49.3	3.6205816850429
10	13746	49.4	2.7212384343308
10	13781	49.5	0.973
10	13816	49.6	4.6740776313706
10	13851	49.7	0.973
10	13886	49.8	1.8629542397871
10	13921	49.9	0.973
10	13956	50	1.4835658824292
10	13991	50.1	5.1298789043915
10	14026	50.2	0.973
10	14061	50.3	0.973
10	14096	50.4	0.973
10	14131	50.5	0.973
10	14166	50.6	0.973
10	14201	50.7	0.973
10	14236	50.8	0.973
10	14271	50.9	0.973
10	14306	51	0.973
10	14341	51.1	0.973
10	14376	51.2	0.973
10	14411	51.3	0.973
10	14446	51.4	0.973
10	14481	51.5	0.973
10	14516	51.6	0.973
10	14551	51.7	0.973
10	14586	51.8	0.973
10	14621	51.9	0.973
10	14656	52	0.973
10	14691	52.1	0.973
10	14726	52.2	0.973
10	14761	52.3	0.973
10	14796	52.4	0.973
10	14831	52.5	0.973
10	14866	52.6	0.973
10	14901	52.7	0.973
10	14936	52.8	0.973
10	14971	52.9	0.973
10	15006	53	0.973
10	15041	53.1	0.973
10	15076	53.2	0.973
10	15111	53.3	0.973
10	15146	53.4	0.973
10	15181	53.5	0.973
10	15216	53.6	0.973
10	15251	53.7	0.973
10	15286	53.8	0.973
10	15321	53.9	3.6026427695226
10	15356	54	3.7791512883974
10	15391	54.1	3.9558076901569
10	15426	54.2	4.1326217167084
10	15461	54.3	4.309603109959
10	15496	54.4	4.4867616118158
10	15531	54.5	4.6641069641861
10	15566	54.6	4.841648908977
10	15601	54.7	5.0193971880957
10	15636	54.8	3.7014019048737
10	15671	54.9	4.9964405907523
10	15706	55	3.5507145670099
10	15741	55.1	5.2684836143706
10	15776	55.2	4.2544616038118
10	15811	55.3	3.889636787235
10	15846	55.4	5.8640119880966
10	15881	55.5	5.4882967168786
10	15916	55.6	5.9711572128093
10	15951	55.7	4.5025907197214
10	15986	55.8	6.1654878795005
10	16021	55.9	4.4808455065044
10	16056	56	6.3330465378119
10	16091	56.1	5.3015518791383
10	16126	56.2	5.2077216955695
10	16161	56.3	6.0671358117351
10	16196	56.4	5.6831371151568
10	16231	56.5	6.7432149968221
10	16266	56.6	6.4234245767787
10	16301	56.7	5.1939158904914
10	16336	56.8	5.7864740093347
10	16371	56.9	6.8044759947645
10	16406	57	6.5642317211602
10	16441	57.1	6.0948013030464
10	16476	57.2	5.1481935647584
10	16511	57.3	6.4329357776096
10	16546	57.4	6.1058288703132
10	16581	57.5	7.6124247389694
10	16616	57.6	7.1676075852436
10	16651	57.7	5.5141462910093
10	16686	57.8	8.5792849266683
10	16721	57.9	6.9903660135643
10	16756	58	6.8651112741105
10	16791	58.1	8.0575979305771
10	16826	58.2	9.0622364580562
10	16861	58.3	7.7212078472222
10	16896	58.4	8.6039744131327
10	16931	58.5	9.2793978378706
10	16966	58.6	10.327921638669
10	17001	58.7	10.412862141104
10	17036	58.8	10.745372019626
10	17071	58.9	9.2530241843241
10	17106	59	6.5403357836426
10	17141	59.1	6.7406442964708
10	17176	59.2	8.0839247004272
10	17211	59.3	11.331591622692
10	17246	59.4	10.720597683175
10	17281	59.5	8.9945126901282
10	17316	59.6	8.2889661336422
10	17351	59.7	9.0417446020714
10	17386	59.8	10.42375632132
10	17421	59.9	7.63704172608
10	17456	60	7.7785482762421
10	17491	60.1	12.499004287376
10	17526	60.2	10.047708627269
10	17561	60.3	4.2635808531412
10	17596	60.4	5.0486507280725
10	17631	60.5	0.973
10	17666	60.6	0.973
10	17701	60.7	1.8922230459557
10	17736	60.8	2.4888036234721
10	17771	60.9	3.6361752101471
10	17806	61	2.5593687685295
10	17841	61.1	2.5743617442665
10	17876	61.2	4.1474708106757
10	17911	61.3	0.973
10	17946	61.4	5.614171236328
10	17981	61.5	0.973
10	18016	61.6	3.9967242387864
10	18051	61.7	1.7949130179891
10	18086	61.8	0.973
10	18121	61.9	3.8350906080525
10	18156	62	1.8710831219798
10	18191	62.1	1.6104728546171
10	18226	62.2	2.127703417893
10	18261	62.3	2.3909018931437
10	18296	62.4	3.5729899613297
10	18331	62.5	2.8390563597679
10	18366	62.6	0.973
10	18401	62.7	5.7618824246621
10	18437	62.8	0.973
10	18472	62.9	3.0817021639639
10	18507	63	2.2889740824257
10	18542	63.1	2.2918446531863
10	18577	63.2	2.9355232594494
10	18612	63.3	1.1070501863961
10	18647	63.4	4.5084691361704
10	18682	63.5	0.973
10	18717	63.6	2.245028227922
10	18752	63.7	6.5322717960835
10	18787	63.8	0.973
10	18822	63.9	0.973
10	18857	64	2.9560905857537
10	18892	64.1	2.8647808573964
10	18927	64.2	0.973
10	18962	64.3	1.783176228899
10	18997	64.4	3.6255590662747
10	19032	64.5	5.0713609057358
10	19067	64.6	1.6859256521721
10	19102	64.7	2.5889159256603
10	19137	64.8	0.973
10	19172	64.9	3.1448581723847
10	19207	65	5.133429255351
10	19242	65.1	0.973
10	19277	65.2	5.4853876770402
10	19312	65.3	0.98389497507276
10	19347	65.4	3.2129208116237
10	19382	65.5	2.6141394591523
10	19417	65.6	3.399358864011
10	19452	65.7	3.1540502812653
10	19487	65.8	1.5288749684538
10	19522	65.9	0.973
10	19557	66	4.165927420389
10	19592	66.1	3.2943935604167
10	19627	66.2	2.7687251724322
10	19662	66.3	0.973
10	19697	66.4	4.3955896426795
10	19732	66.5	2.9930165897771
10	19767	66.6	0.973
10	19802	66.7	3.822572232885
10	19837	66.8	1.1426681258398
10	19872	66.9	5.2363577090133
10	19907	67	0.973
10	19942	67.1	3.2149420614878
10	19977	67.2	5.0689051005658
10	20012	67.3	0.973
10	20047	67.4	5.3021173958608
10	20082	67.5	0.973
10	20117	67.6	4.8564530785621
10	20152	67.7	0.973
10	20188	67.8	3.310328931687
10	20225	67.9	2.1081015984748
10	20262	68	0.973
10	20299	68.1	4.6671384334077
10	20336	68.2	2.0586245172631
10	20373	68.3	3.0614672223335
10	20410	68.4	2.3434327718573
10	20447	68.5	0.973
10	20484	68.6	6.0269431214098
10	20521	68.7	2.3894746535164
10	20558	68.8	0.973
10	20595	68.9	4.9296478954947
10	20632	69	0.973
10	20669	69.1	2.440168330028
10	20706	69.2	3.4113911438013
10	20743	69.3	0.973
10	20780	69.4	4.3322956092042
10	20817	69.5	1.5478784084193
10	20854	69.6	4.9077168636734
10	20891	69.7	0.973
10	20928	69.8	3.9624474012423
10	20965	69.9	0.973
10	21002	70	4.3159591188708
10	21039	70.1	3.3264827220176
10	21076	70.2	0.973
10	21113	70.3	4.9429875024697
10	21151	70.4	0.973
10	21190	70.5	6.2785324398957
10	21229	70.6	0.973
10	21268	70.7	3.159979184716
10	21307	70.8	2.138172160518
10	21346	70.9	4.8808882099459
10	21385	71	0.973
10	21424	71.1	1.8626707521787
10	21463	71.2	5.7460794593917
10	21502	71.3	0.973
10	21541	71.4	3.4985187309568
10	21580	71.5	4.0723432337883
10	21619	71.6	0.973
10	21658	71.7	4.7110159062258
10	21697	71.8	0.973
10	21736	71.9	2.621193651268
10	21775	72	6.8515290993329
10	21814	72.1	0.973
10	21853	72.2	5.8847622576632
10	21892	72.3	0.973
10	21931	72.4	3.9239620320242
10	21970	72.5	2.7527312361148
10	22009	72.6	2.7689579864277
10	22048	72.7	0.973
10	22087	72.8	1.646267353363
10	22126	72.9	2.4426229663952
10	22165	73	5.2668674603671
10	22205	73.1	2.6181678043856
10	22246	73.2	0.973
10	22287	73.3	3.5593327062158
10	22328	73.4	3.8761970177136
10	22369	73.5	2.7757451832483
10	22410	73.6	0.96163289975956
10	22451	73.7	2.3481110060143
10	22492	73.8	3.3514911518267
10	22533	73.9	0.973
10	22574	74	6.578181172633
10	22615	74.1	1.0114405802249
10	22656	74.2	0.973
10	22697	74.3	2.3444725674869
10	22738	74.4	2.7250063052553
10	22779	74.5	1.5032229827662
10	22820	74.6	3.0399989865168
10	22861	74.7	4.3437002720619
10	22902	74.8	0.973
10	22943	74.9	4.6017590749635
10	22984	75	0.97328573121949
10	23025	75.1	0.973
10	23066	75.2	2.95364981656
10	23107	75.3	3.8247558829369
10	23148	75.4	2.4923910896161
10	23189	75.5	2.2298520470709
10	23230	75.6	0.973
10	23271	75.7	4.9942091107362
10	23313	75.8	0.973
10	23356	75.9	0.99010592400296
10	23399	76	5.3295515787173
10	23442	76.1	0.973
10	23485	76.2	4.6311821908567
10	23528	76.3	0.973
10	23571	76.4	4.4674768298393
10	23614	76.5	3.9243093785662
10	23657	76.6	2.0533010240715
10	23700	76.7	1.1235514326571
10	23743	76.8	0.94961109038351
10	23786	76.9	2.1480176621023
10	23829	77	5.2471729143359
10	23872	77.1	0.973
10	23915	77.2	1.7010879283884
10	23958	77.3	4.7014359137843
10	24001	77.4	0.973
10	24044	77.5	3.62826462206
10	24087	77.6	4.0934058618863
10	24130	77.7	1.1685997247527
10	24173	77.8	1.7725070395114
10	24216	77.9	1.4723017892954
10	24259	78	2.0991828819439
10	24302	78.1	5.0429130703522
10	24345	78.2	2.2783427908161
10	24388	78.3	0.973
10	24432	78.4	3.6940553501881
10	24477	78.5	3.4459380626712
10	24522	78.6	2.3077566304204
10	24567	78.7	1.8950235951259
10	24612	78.8	0.973
10	24657	78.9	6.0450394387798
10	24702	79	2.4182712048855
10	24747	79.1	2.2707211334639
10	24792	79.2	0.92456418157733
10	24837	79.3	0.973
10	24882	79.4	2.5280115260605
10	24927	79.5	2.4453952266542
10	24972	79.6	6.156700391196
10	25017	79.7	0.973
10	25062	79.8	11.595765459545
10	25107	79.9	7.8962113762632
10	25152	80	7.783662316851
10	25197	80.1	12.098389479714
10	25242	80.2	9.1043742415962
10	25287	80.3	11.800147807413
10	25332	80.4	12.61764262722
10	25377	80.5	8.9436245627931
10	25422	80.6	10.341570948414
10	25467	80.7	10.069779467311
10	25512	80.8	11.111317029347
10	25557	80.9	11.962992883253
10	25602	81	9.1085624111582
10	25648	81.1	11.270360020763
10	25695	81.2	11.522247151525
10	25742	81.3	12.219946845432
10	25789	81.4	9.1779778240544
10	25836	81.5	12.19787420709
10	25883	81.6	15.155101459555
10	25930	81.7	11.472372256055
10	25977	81.8	12.657549816454
10	26024	81.9	15.351385525965
10	26071	82	12.915374721039
10	26118	82.1	11.048930525635
10	26165	82.2	15.182674650331
10	26212	82.3	12.298463203851
10	26259	82.4	11.807067444576
10	26306	82.5	13.553118360863
10	26353	82.6	11.577901547722
10	26400	82.7	10.519655011549
10	26447	82.8	1.7598656429377
10	26494	82.9	0.65114204935179
10	26541	83	4.8417954881753
10	26588	83.1	4.5483468197346
10	26635	83.2	0.92782739028283
10	26682	83.3	2.6761173157457
10	26729	83.4	3.20287554043
10	26776	83.5	8.552319965198
10	26823	83.6	1.2883272860753
10	26870	83.7	0.973
10	26918	83.8	7.5144974694182
10	26967	83.9	0.88491676376406
10	27016	84	3.4752001523122
10	27065	84.1	6.9770719875986
10	27114	84.2	0.973
10	27163	84.3	4.5012175939972
10	27212	84.4	5.7930886201701
10	27261	84.5	3.4721175064686
10	27310	84.6	1.6305937693831
10	27359	84.7	0.973
10	27408	84.8	6.0098445378866
10	27457	84.9	6.8080017877097
10	27506	85	3.0064157586675
10	27555	85.1	1.4511923156605
10	27604	85.2	0.54871678243496
10	27653	85.3	5.7238842330096
10	27702	85.4	5.102304588566
10	27751	85.5	0.973
10	27800	85.6	7.5055998833238
10	27849	85.7	4.3678169404231
10	27898	85.8	0.973
10	27947	85.9	2.892336494264
10	27996	86	5.4089522532097
10	28045	86.1	0.96180995167522
10	28094	86.2	4.5324959377645
10	28143	86.3	4.309805986658
10	28193	86.4	3.3864993132422
10	28244	86.5	6.2056989096194
10	28295	86.6	0.973
10	28346	86.7	5.1858553674776
10	28397	86.8	4.1547460612616
10	28448	86.9	2.7012453042553
10	28499	87	2.1400541210392
10	28550	87.1	4.2753428006111
10	28601	87.2	0.973
10	28652	87.3	7.309900474235
10	28703	87.4	4.7917660955264
10	28754	87.5	0.973
10	28805	87.6	2.7555110292703
10	28856	87.7	7.972191887607
10	28907	87.8	1.1889741755579
10	28958	87.9	0.973
10	29009	88	2.923395822452
10	29060	88.1	8.0409176484931
10	29111	88.2	0.40721079679973
10	29162	88.3	5.3446813307807
10	29213	88.4	5.2814696151576
10	29264	88.5	0.47198232771257
10	29315	88.6	2.4043810705986
10	29366	88.7	5.5719914226819
10	29417	88.8	2.4161783479181
10	29468	88.9	0.973
10	29520	89	7.2189149504695
10	29573	89.1	3.0189594772466
10	29626	89.2	0.71622399551384
10	29679	89.3	3.0347148548466