version 2
run SingleCH_Safety_B_400Bytes_P_1000Bytes_Q_5-0-20160807-17:36:58-5615
attr configname SingleCH_Safety_B_400Bytes_P_1000Bytes_Q_5
attr datetime 20160807-17:36:58
attr experiment SingleCH_Safety_B_400Bytes_P_1000Bytes_Q_5
attr inifile omnetpp.ini
attr iterationvars $0=1
attr iterationvars2 "$0=1, $repetition=0"
attr measurement $0=1
attr network RSUScenario
attr processid 5615
attr repetition 0
attr replication #0
attr resultdir results
attr runnumber 0
attr seedset 0

vector 6  RSUScenario.node[0].veinsmobility  posx  ETV
vector 7  RSUScenario.node[0].veinsmobility  posy  ETV
vector 8  RSUScenario.node[0].veinsmobility  speed  ETV
vector 9  RSUScenario.node[0].veinsmobility  acceleration  ETV
vector 10  RSUScenario.node[0].veinsmobility  co2emission  ETV
vector 13  RSUScenario.node[1].veinsmobility  posx  ETV
vector 14  RSUScenario.node[1].veinsmobility  posy  ETV
vector 15  RSUScenario.node[1].veinsmobility  speed  ETV
vector 16  RSUScenario.node[1].veinsmobility  acceleration  ETV
vector 17  RSUScenario.node[1].veinsmobility  co2emission  ETV
vector 20  RSUScenario.node[2].veinsmobility  posx  ETV
vector 21  RSUScenario.node[2].veinsmobility  posy  ETV
vector 22  RSUScenario.node[2].veinsmobility  speed  ETV
vector 23  RSUScenario.node[2].veinsmobility  acceleration  ETV
vector 24  RSUScenario.node[2].veinsmobility  co2emission  ETV
vector 27  RSUScenario.node[3].veinsmobility  posx  ETV
vector 28  RSUScenario.node[3].veinsmobility  posy  ETV
vector 29  RSUScenario.node[3].veinsmobility  speed  ETV
vector 30  RSUScenario.node[3].veinsmobility  acceleration  ETV
vector 31  RSUScenario.node[3].veinsmobility  co2emission  ETV
vector 34  RSUScenario.node[4].veinsmobility  posx  ETV
vector 35  RSUScenario.node[4].veinsmobility  posy  ETV
vector 36  RSUScenario.node[4].veinsmobility  speed  ETV
vector 37  RSUScenario.node[4].veinsmobility  acceleration  ETV
vector 38  RSUScenario.node[4].veinsmobility  co2emission  ETV
vector 41  RSUScenario.node[5].veinsmobility  posx  ETV
vector 42  RSUScenario.node[5].veinsmobility  posy  ETV
vector 43  RSUScenario.node[5].veinsmobility  speed  ETV
vector 44  RSUScenario.node[5].veinsmobility  acceleration  ETV
vector 45  RSUScenario.node[5].veinsmobility  co2emission  ETV
10	48	0.3	1.4276208928798
10	70	0.4	1.5553504369406
10	92	0.5	1.6547258140606
10	114	0.6	1.7983555805977
10	136	0.7	1.8323674505787
10	158	0.8	2.0110897446338
10	180	0.9	1.970451684244
10	204	1	2.244901373431
10	226	1.1	2.4421706011754
10	248	1.2	2.4717715676129
10	270	1.3	2.490349205784
10	292	1.4	2.2994080593078
10	314	1.5	2.3468535114061
10	336	1.6	2.7053334192829
10	358	1.7	2.8574764905214
10	380	1.8	2.8588199149409
10	402	1.9	3.1676838080974
10	426	2	2.6009220560927
10	448	2.1	2.7723105548446
10	470	2.2	3.8986610817445
10	492	2.3	3.6671258926679
10	514	2.4	4.1807605214643
10	536	2.5	3.4338915063861
10	558	2.6	4.5723271031368
10	580	2.7	4.1299897267081
10	602	2.8	3.4124425662709
10	657	2.9	3.2489176409252
10	714	3	4.8520098524822
10	769	3.1	3.5633251988539
10	824	3.2	4.4211728537212
10	879	3.3	3.8484153059004
10	934	3.4	4.5116338182601
10	989	3.5	4.2658392269684
10	1044	3.6	4.2541725649791
10	1099	3.7	4.6485625440965
10	1154	3.8	4.8471630181619
10	1209	3.9	4.4136323451218
10	1266	4	6.1029019402357
10	1321	4.1	5.3219589523285
10	1376	4.2	6.1837500805286
10	1431	4.3	4.8539848404845
10	1486	4.4	6.3546469284639
10	1541	4.5	6.7307673571597
10	1596	4.6	6.3402979547281
10	1696	4.7	6.9891496740825
10	1796	4.8	5.7265026195677
10	1896	4.9	4.9423854913865
10	1998	5	6.6959280581874
10	2098	5.1	5.0920906261658
10	2198	5.2	7.883052467471
10	2298	5.3	6.0800520865232
10	2398	5.4	7.6647565404651
10	2498	5.5	5.9495607663829
10	2598	5.6	7.3787696783557
10	2698	5.7	8.6733952170139
10	2798	5.8	5.3883612910766
10	2898	5.9	6.6699958985335
10	3000	6	8.6022631925551
10	3100	6.1	7.1507565035702
10	3200	6.2	7.6965744626944
10	3300	6.3	7.1916959240849
10	3457	6.4	9.3406367694788
10	3614	6.5	9.3947950170629
10	3771	6.6	8.5979091327809
10	3928	6.7	9.8774083418551
10	4085	6.8	10.05345950933
10	4242	6.9	8.5910109613346
10	4401	7	5.169274022467
10	4558	7.1	4.4877857934717
10	4715	7.2	1.673892382931
10	4872	7.3	2.0324290376472
10	5029	7.4	0.973
10	5186	7.5	0.973
10	5343	7.6	3.8780434918413
10	5500	7.7	2.771816397475
10	5657	7.8	0.973
10	5814	7.9	3.151356736179
10	5973	8	1.8067289731944
10	6199	8.1	4.3412821128401
10	6425	8.2	2.1047344347931
10	6651	8.3	0.973
10	6877	8.4	3.7135353988554
10	7103	8.5	0.973
10	7329	8.6	1.7476935912992
10	7555	8.7	2.8528657162343
10	7781	8.8	3.4646031600708
10	8007	8.9	0.973
10	8235	9	2.3848603591386
10	8461	9.1	0.973
10	8687	9.2	4.172820004963
10	8913	9.3	0.973
10	9139	9.4	1.5440728821739
10	9365	9.5	2.443725517022
10	9591	9.6	4.2659016915528
10	9817	9.7	0.973
10	10124	9.8	0.973
10	10431	9.9	0.973
9	48	0.3	2.4479752470855
9	70	0.4	2.3290637582572
9	92	0.5	2.1818481258762
9	114	0.6	2.2357036410334
9	136	0.7	1.9855717337837
9	158	0.8	2.1556800054752
9	180	0.9	1.8177961522857
9	204	1	2.1703654659723
9	226	1.1	2.2939070682778
9	248	1.2	2.1255569649588
9	270	1.3	1.979035354848
9	292	1.4	1.5707574565429
9	314	1.5	1.5441806555959
9	336	1.6	1.9124366020085
9	358	1.7	1.9760296771768
9	380	1.8	1.861542067118
9	402	1.9	2.0893797688885
9	426	2	1.3967243768042
9	448	2.1	1.5130976005225
9	470	2.2	2.5076531236758
9	492	2.3	2.16138498988
9	514	2.4	2.4867319139419
9	536	2.5	1.7573765604757
9	558	2.6	2.5737160811434
9	580	2.7	2.121286001429
9	602	2.8	1.5175942043075
9	657	2.9	1.3556982993847
9	714	3	2.4175439893501
9	769	3.1	1.4688865736127
9	824	3.2	1.9843095479766
9	879	3.3	1.5588160217507
9	934	3.4	1.9233792753657
9	989	3.5	1.71745660624
9	1044	3.6	1.6631775529357
9	1099	3.7	1.8433742713882
9	1154	3.8	1.9014148032991
9	1209	3.9	1.6137996934354
9	1266	4	2.4623201116454
9	1321	4.1	1.9843194504501
9	1376	4.2	2.3577679520939
9	1431	4.3	1.6420063687023
9	1486	4.4	2.318484536279
9	1541	4.5	2.4242163747549
9	1596	4.6	2.1786166946404
9	1696	4.7	2.4054226770764
9	1796	4.8	1.7979858017527
9	1896	4.9	1.426621987205
9	1998	5	2.1326397273224
9	2098	5.1	1.4269468483282
9	2198	5.2	2.5217068935512
9	2298	5.3	1.7509179581422
9	2398	5.4	2.3265026698355
9	2498	5.5	1.6241080194712
9	2598	5.6	2.1271759945666
9	2698	5.7	2.5500469468068
9	2798	5.8	1.3151140186004
9	2898	5.9	1.7513725853758
9	3000	6	2.3902976354817
9	3100	6.1	1.8435945681296
9	3200	6.2	1.9937959953444
9	3300	6.3	1.7894368621986
9	3457	6.4	2.456512319087
9	3614	6.5	2.4203621656401
9	3771	6.6	2.1206572845578
9	3928	6.7	2.4737683475018
9	4085	6.8	2.4750720785465
9	4242	6.9	1.9907534421887
9	4401	7	0.94625103450218
9	4558	7.1	0.73535504776519
9	4715	7.2	-0.10531140831299
9	4872	7.3	0.0019095053896301
9	5029	7.4	-0.38419585630763
9	5186	7.5	-0.36167187027168
9	5343	7.6	0.55520741671788
9	5500	7.7	0.22288368064912
9	5657	7.8	-1.085962399398
9	5814	7.9	0.34045156806242
9	5973	8	-0.063591868081136
9	6199	8.1	0.69307658469771
9	6425	8.2	0.023726173746397
9	6651	8.3	-0.66673890233506
9	6877	8.4	0.5061421389226
9	7103	8.5	-0.37398517448455
9	7329	8.6	-0.081592867546725
9	7555	8.7	0.2493344121147
9	7781	8.8	0.43020050914492
9	8007	8.9	-0.36439497754909
9	8235	9	0.10827362872661
9	8461	9.1	-0.53564673408401
9	8687	9.2	0.64313763577957
9	8913	9.3	-0.4886182518676
9	9139	9.4	-0.14258571164682
9	9365	9.5	0.12747683860361
9	9591	9.6	0.66969768702984
9	9817	9.7	-1.6566956712522
9	10124	9.8	-3.9333584067149
9	10431	9.9	-2.3387677408902
8	26	0.2	0.25286542447004
8	48	0.3	0.49766294917859
8	70	0.4	0.73056932500431
8	92	0.5	0.94875413759194
8	114	0.6	1.1723245016953
8	136	0.7	1.3708816750736
8	158	0.8	1.5864496756212
8	180	0.9	1.7682292908497
8	204	1	1.985265837447
8	226	1.1	2.2146565442748
8	248	1.2	2.4272122407706
8	270	1.3	2.6251157762554
8	292	1.4	2.7821915219097
8	314	1.5	2.9366095874693
8	336	1.6	3.1278532476702
8	358	1.7	3.3254562153878
8	380	1.8	3.5116104220996
8	402	1.9	3.7205483989885
8	426	2	3.8602208366689
8	448	2.1	4.0115305967212
8	470	2.2	4.2622959090887
8	492	2.3	4.4784344080767
8	514	2.4	4.7271075994709
8	536	2.5	4.9028452555185
8	558	2.6	5.1602168636328
8	580	2.7	5.3723454637757
8	602	2.8	5.5241048842065
8	657	2.9	5.659674714145
8	714	3	5.90142911308
8	769	3.1	6.0483177704412
8	824	3.2	6.2467487252389
8	879	3.3	6.402630327414
8	934	3.4	6.5949682549505
8	989	3.5	6.7667139155745
8	1044	3.6	6.9330316708681
8	1099	3.7	7.1173690980069
8	1154	3.8	7.3075105783368
8	1209	3.9	7.4688905476804
8	1266	4	7.7151225588449
8	1321	4.1	7.9135545038899
8	1376	4.2	8.1493312990993
8	1431	4.3	8.3135319359695
8	1486	4.4	8.5453803895974
8	1541	4.5	8.7878020270729
8	1596	4.6	9.005663696537
8	1696	4.7	9.2462059642446
8	1796	4.8	9.4260045444199
8	1896	4.9	9.5686667431404
8	1998	5	9.7819307158726
8	2098	5.1	9.9246254007054
8	2198	5.2	10.176796090061
8	2298	5.3	10.351887885875
8	2398	5.4	10.584538152858
8	2498	5.5	10.746948954805
8	2598	5.6	10.959666554262
8	2698	5.7	11.214671248943
8	2798	5.8	11.346182650803
8	2898	5.9	11.52131990934
8	3000	6	11.760349672889
8	3100	6.1	11.944709129702
8	3200	6.2	12.144088729236
8	3300	6.3	12.323032415456
8	3457	6.4	12.568683647365
8	3614	6.5	12.810719863929
8	3771	6.6	13.022785592384
8	3928	6.7	13.270162427135
8	4085	6.8	13.517669634989
8	4242	6.9	13.716744979208
8	4401	7	13.811370082658
8	4558	7.1	13.884905587435
8	4715	7.2	13.874374446603
8	4872	7.3	13.874565397142
8	5029	7.4	13.836145811512
8	5186	7.5	13.799978624485
8	5343	7.6	13.855499366156
8	5500	7.7	13.877787734221
8	5657	7.8	13.769191494281
8	5814	7.9	13.803236651088
8	5973	8	13.79687746428
8	6199	8.1	13.866185122749
8	6425	8.2	13.868557740124
8	6651	8.3	13.80188384989
8	6877	8.4	13.852498063783
8	7103	8.5	13.815099546334
8	7329	8.6	13.80694025958
8	7555	8.7	13.831873700791
8	7781	8.8	13.874893751706
8	8007	8.9	13.838454253951
8	8235	9	13.849281616823
8	8461	9.1	13.795716943415
8	8687	9.2	13.860030706993
8	8913	9.3	13.811168881806
8	9139	9.4	13.796910310641
8	9365	9.5	13.809657994502
8	9591	9.6	13.876627763205
8	9817	9.7	13.71095819608
8	10124	9.8	13.317622355408
8	10431	9.9	13.083745581319
7	4	0.1	1578.9478335427
7	26	0.2	1578.9478335427
7	48	0.3	1578.9565491369
7	70	0.4	1578.9737022473
7	92	0.5	1578.9988830173
7	114	0.6	1579.0315840337
7	136	0.7	1579.071990923
7	158	0.8	1579.1192415459
7	180	0.9	1579.1739222221
7	204	1	1579.2348683542
7	226	1.1	1579.303295156
7	248	1.2	1579.3796284413
7	270	1.3	1579.4632879533
7	292	1.4	1579.5537686702
7	314	1.5	1579.6496633673
7	336	1.6	1579.7508804426
7	358	1.7	1579.858689175
7	380	1.8	1579.9733087532
7	402	1.9	1580.0943445684
7	426	2	1580.2225819165
7	448	2.1	1580.3556334004
7	470	2.2	1580.4939001268
7	492	2.3	1580.6408100622
7	514	2.4	1580.7951697139
7	536	2.5	1580.9581004651
7	558	2.6	1581.127088422
7	580	2.7	1581.4911760697
7	602	2.8	1581.8734575417
7	657	2.9	1582.2665378004
7	714	3	1582.669264839
7	769	3.1	1583.0891944626
7	824	3.2	1583.5195762822
7	879	3.3	1583.9640779095
7	934	3.4	1584.4196716454
7	989	3.5	1584.8889516257
7	1044	3.6	1585.3704525586
7	1099	3.7	1585.8637882108
7	1154	3.8	1586.3702408122
7	1209	3.9	1586.8902233625
7	1266	4	1587.4216892729
7	1321	4.1	1587.9706763821
7	1376	4.2	1588.5337833688
7	1431	4.3	1589.1136675896
7	1486	4.4	1589.7052358799
7	1541	4.5	1590.3133018753
7	1596	4.6	1590.9386179345
7	1696	4.7	1591.5794364363
7	1796	4.8	1592.2373712715
7	1896	4.9	1592.9081000835
7	1998	5	1593.5889803488
7	2098	5.1	1594.285035898
7	2198	5.2	1594.991245212
7	2298	5.3	1595.7153983051
7	2398	5.4	1596.4520104537
7	2498	5.5	1597.2051773621
7	2598	5.6	1597.9699009806
7	2698	5.7	1598.7497610049
7	2798	5.8	1599.5477664676
7	2898	5.9	1600.3551299246
7	3000	6	1601.1749556717
7	3100	6.1	1602.0117901247
7	3200	6.2	1602.8617430953
7	3300	6.3	1603.7258833759
7	3457	6.4	1604.6027568011
7	3614	6.5	1605.4971100986
7	3771	6.6	1606.4086860344
7	3928	6.7	1607.3353519905
7	4085	6.8	1608.2796206074
7	4242	6.9	1609.2415011637
7	4401	7	1610.2175473794
7	4558	7.1	1611.20032686
7	4715	7.2	1612.1883389261
7	4872	7.3	1613.1756016258
7	5029	7.4	1614.1628779117
7	5186	7.5	1615.1474203654
7	5343	7.6	1616.1293892609
7	5500	7.7	1617.1153088603
7	5657	7.8	1618.1028144397
7	5814	7.9	1619.0825926065
7	5973	8	1620.0647933343
7	6199	8.1	1621.0465415595
7	6425	8.2	1622.0332215289
7	6651	8.3	1623.0200703265
7	6877	8.4	1624.0021747928
7	7103	8.5	1624.9878808279
7	7329	8.6	1625.9709256869
7	7555	8.7	1626.9533899529
7	7781	8.8	1627.9376284145
7	8007	8.9	1628.9249280663
7	8235	9	1629.909634782
7	8461	9.1	1630.8951119436
7	8687	9.2	1631.8767775893
7	8913	9.3	1632.8630196266
7	9139	9.4	1633.8457847899
7	9365	9.5	1634.8275353527
7	9591	9.6	1635.810193005
7	9817	9.7	1636.7976160441
7	10124	9.8	1637.7732504886
7	10431	9.9	1638.7208962245
6	4	0.1	2413.5228035761
6	26	0.2	2413.5228035761
6	48	0.3	2413.4990679593
6	70	0.4	2413.4523540321
6	92	0.5	2413.3837779759
6	114	0.6	2413.2947216542
6	136	0.7	2413.184679543
6	158	0.8	2413.055999546
6	180	0.9	2412.9070849143
6	204	1	2412.7411072488
6	226	1.1	2412.5547571015
6	248	1.2	2412.3468748291
6	270	1.3	2412.119040677
6	292	1.4	2411.8726299935
6	314	1.5	2411.6114751444
6	336	1.6	2411.3358255971
6	358	1.7	2411.0422246582
6	380	1.8	2410.7300754013
6	402	1.9	2410.4004524825
6	426	2	2410.0512172671
6	448	2.1	2409.6888714752
6	470	2.2	2409.3123227512
6	492	2.3	2408.9122355407
6	514	2.4	2408.4918601449
6	536	2.5	2408.0481426431
6	558	2.6	2407.5879292454
6	580	2.7	2407.2234104683
6	602	2.8	2406.8459835501
6	657	2.9	2406.4578949775
6	714	3	2406.0602821286
6	769	3.1	2405.6456851489
6	824	3.2	2405.2207687037
6	879	3.3	2404.7819117584
6	934	3.4	2404.3321035602
6	989	3.5	2403.8687829191
6	1044	3.6	2403.3933965173
6	1099	3.7	2402.9063256849
6	1154	3.8	2402.4063044739
6	1209	3.9	2401.8929251285
6	1266	4	2401.36820825
6	1321	4.1	2400.8261926721
6	1376	4.2	2400.2702365244
6	1431	4.3	2399.6977161944
6	1486	4.4	2399.1136601692
6	1541	4.5	2398.513315942
6	1596	4.6	2397.8959407082
6	1696	4.7	2397.2632598953
6	1796	4.8	2396.6136801082
6	1896	4.9	2395.9514688133
6	1998	5	2395.2792349772
6	2098	5.1	2394.5920185669
6	2198	5.2	2393.8947773331
6	2298	5.3	2393.1798201862
6	2398	5.4	2392.4525622001
6	2498	5.5	2391.7089596819
6	2598	5.6	2390.9539472108
6	2698	5.7	2390.1839905503
6	2798	5.8	2389.3961188773
6	2898	5.9	2388.5990080475
6	3000	6	2387.7895931846
6	3100	6.1	2386.9633856065
6	3200	6.2	2386.1242261023
6	3300	6.3	2385.271059452
6	3457	6.4	2384.4053213533
6	3614	6.5	2383.5223253571
6	3771	6.6	2382.6223254313
6	3928	6.7	2381.7074271126
6	4085	6.8	2380.7751496664
6	4242	6.9	2379.8254839336
6	4401	7	2378.8618324298
6	4558	7.1	2377.8915331663
6	4715	7.2	2376.9160677647
6	4872	7.3	2375.9413422142
6	5029	7.4	2374.9666032488
6	5186	7.5	2373.9945633998
6	5343	7.6	2373.025064428
6	5500	7.7	2372.0516649209
6	5657	7.8	2371.0766995745
6	5814	7.9	2370.1093635112
6	5973	8	2369.139635651
6	6199	8.1	2368.170354547
6	6425	8.2	2367.1962043265
6	6651	8.3	2366.221887421
6	6877	8.4	2365.2522546001
6	7103	8.5	2364.2790659455
6	7329	8.6	2363.3085046735
6	7555	8.7	2362.3385166214
6	7781	8.8	2361.3667769037
6	8007	8.9	2360.3920148703
6	8235	9	2359.4198128447
6	8461	9.1	2358.4468501573
6	8687	9.2	2357.4776505842
6	8913	9.3	2356.5039327339
6	9139	9.4	2355.5336476055
6	9365	9.5	2354.5643641939
6	9591	9.6	2353.5941852109
6	9817	9.7	2352.6193013567
6	10124	9.8	2351.6560563956
6	10431	9.9	2350.7204447158
45	10431	9.9	1.4112283069962
44	10431	9.9	2.3732976574112
43	10124	9.8	0.24834489422222
43	10431	9.9	0.48567465996334
42	9817	9.7	1578.9478335427
42	10124	9.8	1578.9478335427
42	10431	9.9	1578.9563933266
41	9817	9.7	2413.5228035761
41	10124	9.8	2413.5228035761
41	10431	9.9	2413.4994922861
17	714	3	2.259717488709
17	769	3.1	2.211856239927
17	824	3.2	2.4463872926354
17	879	3.3	2.8853979107396
17	934	3.4	2.6201001718682
17	989	3.5	3.5032456637243
17	1044	3.6	2.9758118186625
17	1099	3.7	3.7390547206027
17	1154	3.8	2.7465835940227
17	1209	3.9	3.4155185794962
17	1266	4	3.6798910101175
17	1321	4.1	4.0358483534651
17	1376	4.2	3.3195525411188
17	1431	4.3	3.9343951263691
17	1486	4.4	3.8424466797346
17	1541	4.5	4.9589680867401
17	1596	4.6	3.9725186730051
17	1696	4.7	4.0717298369981
17	1796	4.8	4.6204214790692
17	1896	4.9	4.1186884093385
17	1998	5	4.3472346651805
17	2098	5.1	4.2504386573527
17	2198	5.2	3.7204368286972
17	2298	5.3	4.4547886680709
17	2398	5.4	5.2755576319976
17	2498	5.5	5.5033019429855
17	2598	5.6	5.6088407764038
17	2698	5.7	5.444791694015
17	2798	5.8	4.197189860222
17	2898	5.9	6.2501987364278
17	3000	6	4.2436570150919
17	3100	6.1	6.3542533636258
17	3200	6.2	5.8590424275724
17	3300	6.3	6.8946664812292
17	3457	6.4	5.5012721128441
17	3614	6.5	5.2713001778821
17	3771	6.6	5.7006906741174
17	3928	6.7	5.9112067606782
17	4085	6.8	4.8896266767024
17	4242	6.9	6.437480669571
17	4401	7	6.7367479038116
17	4558	7.1	6.882210824912
17	4715	7.2	7.2809456312377
17	4872	7.3	6.253854848085
17	5029	7.4	5.5260812467152
17	5186	7.5	6.8511266238863
17	5343	7.6	7.1564391166587
17	5500	7.7	5.7355802067351
17	5657	7.8	8.2146160033802
17	5814	7.9	6.1903488131191
17	5973	8	6.2619390061949
17	6199	8.1	8.0704981668837
17	6425	8.2	6.4740278367159
17	6651	8.3	7.5890682449063
17	6877	8.4	6.086733318594
17	7103	8.5	8.4829085710067
17	7329	8.6	9.3393065595798
17	7555	8.7	8.5184072898887
17	7781	8.8	9.297921068527
17	8007	8.9	6.3768735591754
17	8235	9	1.125666428027
17	8461	9.1	2.9793295756227
17	8687	9.2	2.0869412746016
17	8913	9.3	2.7540553223376
17	9139	9.4	1.2174919078995
17	9365	9.5	1.6331708816439
17	9591	9.6	3.9803410019947
17	9817	9.7	0.973
17	10124	9.8	1.585259272098
17	10431	9.9	3.256751483299
16	714	3	1.4689842111664
16	769	3.1	1.3277961542364
16	824	3.2	1.5610938670114
16	879	3.3	2.0000768283615
16	934	3.4	1.5853120716521
16	989	3.5	2.4462432491127
16	1044	3.6	1.7681026779115
16	1099	3.7	2.413640728849
16	1154	3.8	1.3719304058002
16	1209	3.9	1.9215971733676
16	1266	4	2.0609394765459
16	1321	4.1	2.2560777051607
16	1376	4.2	1.5934962075437
16	1431	4.3	2.0070045632543
16	1486	4.4	1.8610358671751
16	1541	4.5	2.5755732625723
16	1596	4.6	1.7970738488948
16	1696	4.7	1.8042755607981
16	1796	4.8	2.0975643285317
16	1896	4.9	1.7136336127995
16	1998	5	1.8030174996005
16	2098	5.1	1.6930794459535
16	2198	5.2	1.3392482108204
16	2298	5.3	1.7281707641901
16	2398	5.4	2.1344021787401
16	2498	5.5	2.1899431454483
16	2598	5.6	2.1774386041798
16	2698	5.7	2.0298180325888
16	2798	5.8	1.3533659499604
16	2898	5.9	2.3284602138447
16	3000	6	1.3061105647124
16	3100	6.1	2.2707209182903
16	3200	6.2	1.9828932433389
16	3300	6.3	2.393339537573
16	3457	6.4	1.722821981064
16	3614	6.5	1.588150873757
16	3771	6.6	1.7387150715338
16	3928	6.7	1.7903000787599
16	4085	6.8	1.3364715013653
16	4242	6.9	1.937488316698
16	4401	7	2.0134930219268
16	4558	7.1	2.0257758020889
16	4715	7.2	2.1327221903251
16	4872	7.3	1.7047404578654
16	5029	7.4	1.4062938852701
16	5186	7.5	1.8652544746641
16	5343	7.6	1.9383403507527
16	5500	7.7	1.4024951044004
16	5657	7.8	2.2389658667613
16	5814	7.9	1.5049552971031
16	5973	8	1.5061980411876
16	6199	8.1	2.0828330228571
16	6425	8.2	1.5223779631779
16	6651	8.3	1.8594960743096
16	6877	8.4	1.3491548916092
16	7103	8.5	2.0850722383009
16	7329	8.6	2.309993880149
16	7555	8.7	2.0160429485142
16	7781	8.8	2.2133319628425
16	8007	8.9	1.3102018267075
16	8235	9	-0.26818516706117
16	8461	9.1	0.28868702901528
16	8687	9.2	0.020381682924917
16	8913	9.3	0.21985947745852
16	9139	9.4	-0.24089782186785
16	9365	9.5	-0.11569518698378
16	9591	9.6	0.58615376069211
16	9817	9.7	-0.32959410543555
16	10124	9.8	-0.13037312505766
16	10431	9.9	0.36990382352379
15	657	2.9	2.7058781965666
15	714	3	2.8527766176833
15	769	3.1	2.9855562331069
15	824	3.2	3.1416656198081
15	879	3.3	3.3416733026442
15	934	3.4	3.5002045098094
15	989	3.5	3.7448288347207
15	1044	3.6	3.9216391025119
15	1099	3.7	4.1630031753967
15	1154	3.8	4.3001962159768
15	1209	3.9	4.4923559333135
15	1266	4	4.6984498809681
15	1321	4.1	4.9240576514842
15	1376	4.2	5.0834072722386
15	1431	4.3	5.284107728564
15	1486	4.4	5.4702113152815
15	1541	4.5	5.7277686415387
15	1596	4.6	5.9074760264282
15	1696	4.7	6.087903582508
15	1796	4.8	6.2976600153612
15	1896	4.9	6.4690233766411
15	1998	5	6.6493251266012
15	2098	5.1	6.8186330711965
15	2198	5.2	6.9525578922786
15	2298	5.3	7.1253749686976
15	2398	5.4	7.3388151865716
15	2498	5.5	7.5578095011164
15	2598	5.6	7.7755533615344
15	2698	5.7	7.9785351647933
15	2798	5.8	8.1138717597893
15	2898	5.9	8.3467177811738
15	3000	6	8.477328837645
15	3100	6.1	8.7044009294741
15	3200	6.2	8.902690253808
15	3300	6.3	9.1420242075653
15	3457	6.4	9.3143064056717
15	3614	6.5	9.4731214930474
15	3771	6.6	9.6469930002008
15	3928	6.7	9.8260230080767
15	4085	6.8	9.9596701582133
15	4242	6.9	10.153418989883
15	4401	7	10.354768292076
15	4558	7.1	10.557345872285
15	4715	7.2	10.770618091317
15	4872	7.3	10.941092137104
15	5029	7.4	11.081721525631
15	5186	7.5	11.268246973097
15	5343	7.6	11.462081008172
15	5500	7.7	11.602330518612
15	5657	7.8	11.826227105289
15	5814	7.9	11.976722634999
15	5973	8	12.127342439118
15	6199	8.1	12.335625741403
15	6425	8.2	12.487863537721
15	6651	8.3	12.673813145152
15	6877	8.4	12.808728634313
15	7103	8.5	13.017235858143
15	7329	8.6	13.248235246158
15	7555	8.7	13.449839541009
15	7781	8.8	13.671172737294
15	8007	8.9	13.802192919964
15	8235	9	13.775374403258
15	8461	9.1	13.80424310616
15	8687	9.2	13.806281274452
15	8913	9.3	13.828267222198
15	9139	9.4	13.804177440011
15	9365	9.5	13.792607921313
15	9591	9.6	13.851223297382
15	9817	9.7	13.818263886839
15	10124	9.8	13.805226574333
15	10431	9.9	13.842216956685
14	602	2.8	1578.9478335427
14	657	2.9	1578.9478335427
14	714	3	1579.0410979241
14	769	3.1	1579.1394255012
14	824	3.2	1579.2423296366
14	879	3.3	1579.3506144444
14	934	3.4	1579.4657929819
14	989	3.5	1579.5864356663
14	1044	3.6	1579.7155098962
14	1099	3.7	1579.8506783033
14	1154	3.8	1579.9941658834
14	1209	3.9	1580.1423821412
14	1266	4	1580.2972216308
14	1321	4.1	1580.4591646269
14	1376	4.2	1580.6288837185
14	1431	4.3	1580.8040951658
14	1486	4.4	1580.9862242211
14	1541	4.5	1581.2224223902
14	1596	4.6	1581.6299948078
14	1696	4.7	1582.0503547126
14	1796	4.8	1582.4835533518
14	1896	4.9	1582.931677687
14	1998	5	1583.3919957718
14	2098	5.1	1583.865143639
14	2198	5.2	1584.3503389983
14	2298	5.3	1584.8450640822
14	2398	5.4	1585.3520863596
14	2498	5.5	1585.8742964612
14	2598	5.6	1586.4120896021
14	2698	5.7	1586.9653768027
14	2798	5.8	1587.5331076356
14	2898	5.9	1588.1104686521
14	3000	6	1588.7043983573
14	3100	6.1	1589.3076219894
14	3200	6.2	1589.9270034535
14	3300	6.3	1590.5604946455
14	3457	6.4	1591.2110161902
14	3614	6.5	1591.8737968672
14	3771	6.6	1592.547878393
14	3928	6.7	1593.2343321415
14	4085	6.8	1593.9335251777
14	4242	6.9	1594.6422281815
14	4401	7	1595.3647178244
14	4558	7.1	1596.1015349347
14	4715	7.2	1596.8527669143
14	4872	7.3	1597.6191747645
14	5029	7.4	1598.3977130828
14	5186	7.5	1599.1862582061
14	5343	7.6	1599.9880759716
14	5500	7.7	1600.80368644
14	5657	7.8	1601.6292766808
14	5814	7.9	1602.4707987932
14	5973	8	1603.3230297575
14	6199	8.1	1604.1859784173
14	6425	8.2	1605.0637479499
14	6651	8.3	1605.9523503082
14	6877	8.4	1606.8541843351
14	7103	8.5	1607.7656185804
14	7329	8.6	1608.6918896325
14	7555	8.7	1609.6345979711
14	7781	8.8	1610.591651923
14	8007	8.9	1611.5644553415
14	8235	9	1612.5465818001
14	8461	9.1	1613.5267999256
14	8687	9.2	1614.5090722693
14	8913	9.3	1615.4914896442
14	9139	9.4	1616.4754714789
14	9365	9.5	1617.4577391502
14	9591	9.6	1618.4391835658
14	9817	9.7	1619.4247988928
14	10124	9.8	1620.4080689168
14	10431	9.9	1621.3904112419
13	602	2.8	2413.5228035761
13	657	2.9	2413.5228035761
13	714	3	2413.2688119991
13	769	3.1	2413.0010315672
13	824	3.2	2412.7207875649
13	879	3.3	2412.4258901057
13	934	3.4	2412.1122186059
13	989	3.5	2411.7836663214
13	1044	3.6	2411.4321519841
13	1099	3.7	2411.0640410685
13	1154	3.8	2410.673274129
13	1209	3.9	2410.2696293457
13	1266	4	2409.8479471839
13	1321	4.1	2409.4069196845
13	1376	4.2	2408.9447151516
13	1431	4.3	2408.467553012
13	1486	4.4	2407.9715518038
13	1541	4.5	2407.4887512721
13	1596	4.6	2407.0863545756
13	1696	4.7	2406.6713327782
13	1796	4.8	2406.2436352849
13	1896	4.9	2405.8012016352
13	1998	5	2405.3467290825
13	2098	5.1	2404.8795896724
13	2198	5.2	2404.40055576
13	2298	5.3	2403.9121131391
13	2398	5.4	2403.4115294864
13	2498	5.5	2402.8959508778
13	2598	5.6	2402.3649871176
13	2698	5.7	2401.8187260549
13	2798	5.8	2401.258204778
13	2898	5.9	2400.6881756104
13	3000	6	2400.1017881581
13	3100	6.1	2399.5062248013
13	3200	6.2	2398.8947087997
13	3300	6.3	2398.2692622477
13	3457	6.4	2397.6270016101
13	3614	6.5	2396.972637518
13	3771	6.6	2396.3071160851
13	3928	6.7	2395.629379543
13	4085	6.8	2394.9390654879
13	4242	6.9	2394.2393622318
13	4401	7	2393.5260474116
13	4558	7.1	2392.7985870665
13	4715	7.2	2392.0568949054
13	4872	7.3	2391.3002195909
13	5029	7.4	2390.5315678511
13	5186	7.5	2389.7530363825
13	5343	7.6	2388.961400819
13	5500	7.7	2388.1561477055
13	5657	7.8	2387.3410415511
13	5814	7.9	2386.5102058424
13	5973	8	2385.6687972724
13	6199	8.1	2384.8168071102
13	6425	8.2	2383.9501842844
13	6651	8.3	2383.0728661964
13	6877	8.4	2382.1824844684
13	7103	8.5	2381.2826244339
13	7329	8.6	2380.3681160043
13	7555	8.7	2379.4373790227
13	7781	8.8	2378.4924786021
13	8007	8.9	2377.5320287149
13	8235	9	2376.5623741808
13	8461	9.1	2375.5946037454
13	8687	9.2	2374.6248051781
13	8913	9.3	2373.654863422
13	9139	9.4	2372.6833770728
13	9365	9.5	2371.7135831187
13	9591	9.6	2370.7446019658
13	9817	9.7	2369.7715028682
13	10124	9.8	2368.8007192898
13	10431	9.9	2367.8308516303
24	1796	4.8	2.2563550429717
24	1896	4.9	2.8311790548224
24	1998	5	2.9541218921631
24	2098	5.1	3.4760879203923
24	2198	5.2	2.9052917166184
24	2298	5.3	3.6508888331948
24	2398	5.4	3.860061841894
24	2498	5.5	3.300109233236
24	2598	5.6	3.4465311620097
24	2698	5.7	3.4380404571776
24	2798	5.8	4.4099576030769
24	2898	5.9	3.6417337295424
24	3000	6	3.6955493935255
24	3100	6.1	4.218545314512
24	3200	6.2	4.6592298040102
24	3300	6.3	4.6113087261521
24	3457	6.4	4.0850922134674
24	3614	6.5	5.1377663221649
24	3771	6.6	3.9269545227938
24	3928	6.7	3.9556781647124
24	4085	6.8	3.710105575836
24	4242	6.9	3.760330386483
24	4401	7	4.3633464755712
24	4558	7.1	5.5358634546274
24	4715	7.2	5.6370700711426
24	4872	7.3	5.7138198050806
24	5029	7.4	6.5132614618975
24	5186	7.5	5.322502446581
24	5343	7.6	5.5379655049179
24	5500	7.7	5.4921016286197
24	5657	7.8	6.3272076747139
24	5814	7.9	7.0107709359355
24	5973	8	6.691722038411
24	6199	8.1	5.9094743027288
24	6425	8.2	6.6856918215615
24	6651	8.3	7.1315789980979
24	6877	8.4	6.7334174189408
24	7103	8.5	6.3187504058852
24	7329	8.6	5.401428860458
24	7555	8.7	5.6171388169188
24	7781	8.8	5.9586945232257
24	8007	8.9	5.6325235053487
24	8235	9	5.3958421656418
24	8461	9.1	7.1268511469679
24	8687	9.2	7.6283056432462
24	8913	9.3	9.1718130151678
24	9139	9.4	8.3148563960874
24	9365	9.5	7.9022398192668
24	9591	9.6	9.3642224870548
24	9817	9.7	7.5766382074163
24	10124	9.8	8.7186991638757
24	10431	9.9	9.794230535757
23	1796	4.8	1.3731275021331
23	1896	4.9	2.0150650135707
23	1998	5	2.0318584615365
23	2098	5.1	2.4709355429979
23	2198	5.2	1.7332032753388
23	2298	5.3	2.3778175380314
23	2398	5.4	2.4323958121473
23	2498	5.5	1.8098201332847
23	2598	5.6	1.8587441912619
23	2698	5.7	1.7754437308991
23	2798	5.8	2.4673417511396
23	2898	5.9	1.7744234598242
23	3000	6	1.7509591813199
23	3100	6.1	2.0613208355848
23	3200	6.2	2.282246735529
23	3300	6.3	2.1605900972383
23	3457	6.4	1.7467715304112
23	3614	6.5	2.3444429362891
23	3771	6.6	1.5327087998157
23	3928	6.7	1.5106716213282
23	4085	6.8	1.3306026952108
23	4242	6.9	1.3302105819574
23	4401	7	1.6389573442517
23	4558	7.1	2.2323509526905
23	4715	7.2	2.2150177409174
23	4872	7.3	2.1866218747105
23	5029	7.4	2.5166082486743
23	5186	7.5	1.8634181170026
23	5343	7.6	1.9197775312001
23	5500	7.7	1.8512695562793
23	5657	7.8	2.1858603585744
23	5814	7.9	2.4286627793917
23	5973	8	2.2237720817327
23	6199	8.1	1.8375331870746
23	6425	8.2	2.1192494755378
23	6651	8.3	2.2489896407584
23	6877	8.4	2.0367255169898
23	7103	8.5	1.830345495604
23	7329	8.6	1.4409792399267
23	7555	8.7	1.499668734055
23	7781	8.8	1.602869186597
23	8007	8.9	1.4545658389106
23	8235	9	1.3449589157943
23	8461	9.1	1.9482783020008
23	8687	9.2	2.0866699201986
23	8913	9.3	2.5750488391845
23	9139	9.4	2.2256116950186
23	9365	9.5	2.0426006918307
23	9591	9.6	2.4799139474053
23	9817	9.7	1.8533771674382
23	10124	9.8	2.1827035831287
23	10431	9.9	2.4735620954074
22	1696	4.7	2.8793760074832
22	1796	4.8	3.0166887576965
22	1896	4.9	3.2181952590536
22	1998	5	3.4213811052072
22	2098	5.1	3.668474659507
22	2198	5.2	3.8417949870409
22	2298	5.3	4.079576740844
22	2398	5.4	4.3228163220588
22	2498	5.5	4.5037983353872
22	2598	5.6	4.6896727545134
22	2698	5.7	4.8672171276033
22	2798	5.8	5.1139513027173
22	2898	5.9	5.2913936486997
22	3000	6	5.4664895668317
22	3100	6.1	5.6726216503902
22	3200	6.2	5.9008463239431
22	3300	6.3	6.1169053336669
22	3457	6.4	6.291582486708
22	3614	6.5	6.526026780337
22	3771	6.6	6.6792976603185
22	3928	6.7	6.8303648224514
22	4085	6.8	6.9634250919724
22	4242	6.9	7.0964461501682
22	4401	7	7.2603418845933
22	4558	7.1	7.4835769798624
22	4715	7.2	7.7050787539541
22	4872	7.3	7.9237409414252
22	5029	7.4	8.1754017662926
22	5186	7.5	8.3617435779929
22	5343	7.6	8.5537213311129
22	5500	7.7	8.7388482867408
22	5657	7.8	8.9574343225983
22	5814	7.9	9.2003006005374
22	5973	8	9.4226778087107
22	6199	8.1	9.6064311274182
22	6425	8.2	9.8183560749719
22	6651	8.3	10.043255039048
22	6877	8.4	10.246927590747
22	7103	8.5	10.429962140307
22	7329	8.6	10.5740600643
22	7555	8.7	10.724026937705
22	7781	8.8	10.884313856365
22	8007	8.9	11.029770440256
22	8235	9	11.164266331836
22	8461	9.1	11.359094162036
22	8687	9.2	11.567761154055
22	8913	9.3	11.825266037974
22	9139	9.4	12.047827207476
22	9365	9.5	12.252087276659
22	9591	9.6	12.500078671399
22	9817	9.7	12.685416388143
22	10124	9.8	12.903686746456
22	10431	9.9	13.151042955997
21	1596	4.6	1578.9478335427
21	1696	4.7	1578.9478335427
21	1796	4.8	1579.0470779296
21	1896	4.9	1579.151055119
21	1998	5	1579.2619776996
21	2098	5.1	1579.3799035512
21	2198	5.2	1579.5063460572
21	2298	5.3	1579.6387624517
21	2398	5.4	1579.7793745464
21	2498	5.5	1579.9283704581
21	2598	5.6	1580.0836043367
21	2698	5.7	1580.2452448085