file 40296 1473899067                                           
version 2
run SingleCH_Safety_B_400Bytes_P_1000Bytes_Q_5-0-20160807-17:36:58-5615
attr configname SingleCH_Safety_B_400Bytes_P_1000Bytes_Q_5
attr datetime 20160807-17:36:58
attr experiment SingleCH_Safety_B_400Bytes_P_1000Bytes_Q_5
attr inifile omnetpp.ini
attr iterationvars $0=1
attr iterationvars2 "$0=1, $repetition=0"
attr measurement $0=1
attr network RSUScenario
attr processid 5615
attr repetition 0
attr replication #0
attr resultdir results
attr runnumber 0
attr seedset 0
vector 6  RSUScenario.node[0].veinsmobility  posx  ETV
6	12588 2605 4 10431 0.1 9.9 99 2350.7204447158 2413.5228035761 236649.50272012 565724199.23869
vector 7  RSUScenario.node[0].veinsmobility  posy  ETV
7	9983 2605 4 10431 0.1 9.9 99 1578.9478335427 1638.7208962245 158320.25844991 253220562.14966
vector 8  RSUScenario.node[0].veinsmobility  speed  ETV
8	7398 2585 26 10431 0.2 9.9 98 0.25286542447004 13.884905587435 885.74145992225 9996.0156355833
vector 9  RSUScenario.node[0].veinsmobility  acceleration  ETV
9	4799 2599 48 10431 0.3 9.9 97 -3.9333584067149 2.5737160811434 128.30880156849 309.15462293054
vector 10  RSUScenario.node[0].veinsmobility  co2emission  ETV
10	2256 2543 48 10431 0.3 9.9 97 0.973 10.05345950933 399.90724492232 2208.4240537654
vector 13  RSUScenario.node[1].veinsmobility  posx  ETV
13	23309 1987 602 10431 2.8 9.9 72 2367.8308516303 2413.5228035761 172466.91037799 413136070.06192
vector 14  RSUScenario.node[1].veinsmobility  posy  ETV
14	21319 1990 602 10431 2.8 9.9 72 1578.9478335427 1621.3904112419 114771.27107989 182963074.94926
vector 15  RSUScenario.node[1].veinsmobility  speed  ETV
15	19355 1964 657 10431 2.9 9.9 71 2.7058781965666 13.851223297382 642.94810037138 6743.1727309187
vector 16  RSUScenario.node[1].veinsmobility  acceleration  ETV
16	17403 1952 714 10431 3 9.9 70 -0.32959410543555 2.5755732625723 111.36338760119 212.8683488223
vector 17  RSUScenario.node[1].veinsmobility  co2emission  ETV
17	15483 1920 714 10431 3 9.9 70 0.973 9.3393065595798 340.39175148455 1937.6571342865
vector 20  RSUScenario.node[2].veinsmobility  posx  ETV
20	31146 1501 1596 10431 4.6 9.9 54 2383.2305999773 2413.5228035761 129661.56596155 311339939.75393
vector 21  RSUScenario.node[2].veinsmobility  posy  ETV
21	29649 1497 1596 10431 4.6 9.9 54 1578.9478335427 1605.7925877189 85770.926575011 136238007.95178
vector 22  RSUScenario.node[2].veinsmobility  speed  ETV
22	28179 1470 1696 10431 4.7 9.9 53 2.8793760074832 13.151042955997 423.05483933157 3850.0177713044
vector 23  RSUScenario.node[2].veinsmobility  acceleration  ETV
23	26735 1444 1796 10431 4.8 9.9 52 1.3302105819574 2.5750488391845 102.71666948514 209.29868930763
vector 24  RSUScenario.node[2].veinsmobility  co2emission  ETV
24	25296 1439 1796 10431 4.8 9.9 52 2.2563550429717 9.794230535757 282.4589476419 1708.5696460118
vector 27  RSUScenario.node[3].veinsmobility  posx  ETV
27	36621 1031 3300 10431 6.3 9.9 37 2396.5580441714 2413.5228035761 89028.959320633 214221395.32424
vector 28  RSUScenario.node[3].veinsmobility  posy  ETV
28	35590 1031 3300 10431 6.3 9.9 37 1578.9478335427 1592.2937228102 58590.863402294 92781421.872339
vector 29  RSUScenario.node[3].veinsmobility  speed  ETV
29	34590 1000 3457 10431 6.4 9.9 36 3.0263243494502 9.7740050940977 229.97317017417 1611.823924276
vector 30  RSUScenario.node[3].veinsmobility  acceleration  ETV
30	33619 971 3614 10431 6.5 9.9 35 1.3265372503782 2.5938958732877 67.476807446475 136.59812576731
vector 31  RSUScenario.node[3].veinsmobility  co2emission  ETV
31	32647 972 3614 10431 6.5 9.9 35 2.3064021977363 7.4082996828796 156.63935023911 753.87044457262
vector 34  RSUScenario.node[4].veinsmobility  posx  ETV
34	39741 555 5973 10431 8 9.9 20 2405.9866411089 2413.5228035761 48203.603900731 116179488.83405
vector 35  RSUScenario.node[4].veinsmobility  posy  ETV
35	39185 556 5973 10431 8 9.9 20 1578.9478335427 1582.7438530466 31605.900760328 49946672.185797
vector 36  RSUScenario.node[4].veinsmobility  speed  ETV
36	38655 530 6199 10431 8.1 9.9 19 3.1834767652995 6.5922011704014 92.583450642369 471.54720234448
vector 37  RSUScenario.node[4].veinsmobility  acceleration  ETV
37	38153 502 6425 10431 8.2 9.9 18 1.3207450939575 2.4238837108482 34.08724405102 66.371615575925
vector 38  RSUScenario.node[4].veinsmobility  co2emission  ETV
38	37652 501 6425 10431 8.2 9.9 18 2.709533581247 5.0466310995506 65.473971009669 246.58589009301
vector 41  RSUScenario.node[5].veinsmobility  posx  ETV
41	15397 86 9817 10431 9.7 9.9 3 2413.4994922861 2413.5228035761 7240.5450994383 17475164.446029
vector 42  RSUScenario.node[5].veinsmobility  posy  ETV
42	15311 86 9817 10431 9.7 9.9 3 1578.9478335427 1578.9563933266 4736.852060412 7479255.8141253
vector 43  RSUScenario.node[5].veinsmobility  speed  ETV
43	15251 60 10124 10431 9.8 9.9 2 0.24834489422222 0.48567465996334 0.73401955418556 0.29755506181675
vector 44  RSUScenario.node[5].veinsmobility  acceleration  ETV
44	15222 29 10431 10431 9.9 9.9 1 2.3732976574112 2.3732976574112 2.3732976574112 5.6325417706735
vector 45  RSUScenario.node[5].veinsmobility  co2emission  ETV
45	15193 29 10431 10431 9.9 9.9 1 1.4112283069962 1.4112283069962 1.4112283069962 1.9915653344674
