file 8038506 1470104256                                         
version 2
run SlidesParams_B_400Bytes_P_1000Bytes_Q_5-0-20160125-10:55:36-3964
attr configname SlidesParams_B_400Bytes_P_1000Bytes_Q_5
attr datetime 20160125-10:55:36
attr experiment SlidesParams_B_400Bytes_P_1000Bytes_Q_5
attr inifile omnetpp.ini
attr iterationvars $0=1
attr iterationvars2 "$0=1, $repetition=0"
attr measurement $0=1
attr network RSUScenario
attr processid 3964
attr repetition 0
attr replication #0
attr resultdir results
attr runnumber 0
attr seedset 0
vector 6  RSUScenario.node[0].veinsmobility  posx  ETV
6	247501 60920 21 6831047 0.1 199.9 1999 487.87810952775 2450.6464633406 3657452.8816384 7495510881.3284
vector 7  RSUScenario.node[0].veinsmobility  posy  ETV
7	186317 61184 21 6831047 0.1 199.9 1999 1223.8412419707 2120.9508423135 3289106.6720032 5555856890.3383
vector 8  RSUScenario.node[0].veinsmobility  speed  ETV
8	128988 57329 69 6831047 0.2 199.9 1998 0 27.779501384608 28923.335674567 550699.74307705
vector 9  RSUScenario.node[0].veinsmobility  acceleration  ETV
9	70530 58458 118 6831047 0.3 199.9 1997 -4.5 2.6 85.678650578425 4145.5694685122
vector 10  RSUScenario.node[0].veinsmobility  co2emission  ETV
10	14429 56101 118 6831047 0.3 199.9 1997 -0.79917601861688 20.598469970534 6814.7074204161 43516.377525034
vector 13  RSUScenario.node[1].veinsmobility  posx  ETV
13	7061155 62408 1389 6831047 2.8 199.9 1972 539.23006624682 2450.6240010866 3665720.8569563 7551639603.5158
vector 14  RSUScenario.node[1].veinsmobility  posy  ETV
14	6998775 62380 1389 6831047 2.8 199.9 1972 1246.2977346461 2120.9574492974 3263111.2326532 5538174102.0901
vector 15  RSUScenario.node[1].veinsmobility  speed  ETV
15	6935510 63265 1505 6831047 2.9 199.9 1971 9.9252092916552e-12 27.779948902135 28371.295624443 538185.98622267
vector 16  RSUScenario.node[1].veinsmobility  acceleration  ETV
16	6870506 65004 1597 6831047 3 199.9 1970 -4.5 2.6 139.57583131235 3468.1624173579
vector 17  RSUScenario.node[1].veinsmobility  co2emission  ETV
17	6812812 57694 1597 6831047 3 199.9 1970 -0.35293491742241 20.868752913327 6742.40457963 42561.856709691
vector 20  RSUScenario.node[2].veinsmobility  posx  ETV
20	7369325 61884 3066 6831047 4.6 199.9 1954 591.82148054661 2450.6075653031 3684804.6137195 7632693339.0997
vector 21  RSUScenario.node[2].veinsmobility  posy  ETV
21	7307434 61891 3066 6831047 4.6 199.9 1954 1266.4963265881 2120.9412089968 3247761.2718007 5532352941.3925
vector 22  RSUScenario.node[2].veinsmobility  speed  ETV
22	7244789 62645 3208 6831047 4.7 199.9 1953 3.0170843601e-10 27.779536658977 27808.511528307 526109.55755733
vector 23  RSUScenario.node[2].veinsmobility  acceleration  ETV
23	7180426 64363 3351 6831047 4.8 199.9 1952 -4.5 2.6 136.84429158497 3356.7261913661
vector 24  RSUScenario.node[2].veinsmobility  co2emission  ETV
24	7123563 56863 3351 6831047 4.8 199.9 1952 -0.76322894141068 19.727633097224 6641.3753911546 42662.684054704
vector 27  RSUScenario.node[3].veinsmobility  posx  ETV
27	7674729 61420 5566 6831047 6.3 199.9 1937 641.44516669528 2450.6377364488 3701120.5683148 7708245127.9449
vector 28  RSUScenario.node[3].veinsmobility  posy  ETV
28	7613271 61458 5566 6831047 6.3 199.9 1937 1283.7349486668 2120.9536934551 3231084.8722618 5519657604.9754
vector 29  RSUScenario.node[3].veinsmobility  speed  ETV
29	7551139 62132 5773 6831047 6.4 199.9 1936 4.6712660822857e-09 27.778777530561 27283.517297037 515338.15747247
vector 30  RSUScenario.node[3].veinsmobility  acceleration  ETV
30	7487370 63769 5981 6831047 6.5 199.9 1935 -4.5 2.6 135.78598678068 3194.7209629278
vector 31  RSUScenario.node[3].veinsmobility  co2emission  ETV
31	7431209 56161 5981 6831047 6.5 199.9 1935 -0.6193439648532 20.768582432977 6520.9986489072 41772.883322875
vector 34  RSUScenario.node[4].veinsmobility  posx  ETV
34	7977582 60924 9183 6831047 8 199.9 1920 691.7311648418 2450.6306680345 3715183.8650775 7779193184.4044
vector 35  RSUScenario.node[4].veinsmobility  posy  ETV
35	7916626 60956 9183 6831047 8 199.9 1920 1297.910129535 2120.9310741462 3214304.3018518 5507245879.0884
vector 36  RSUScenario.node[4].veinsmobility  speed  ETV
36	7855027 61599 9467 6831047 8.1 199.9 1919 4.4484911737197e-08 27.779831413899 26761.582069746 504879.93339546
vector 37  RSUScenario.node[4].veinsmobility  acceleration  ETV
37	7791763 63264 9752 6831047 8.2 199.9 1918 -4.5 2.6 133.65779231417 3080.7625750506
vector 38  RSUScenario.node[4].veinsmobility  co2emission  ETV
38	7736149 55614 9752 6831047 8.2 199.9 1918 -0.82462880128037 21.655482656682 6418.1799332787 41351.08201929
vector 41  RSUScenario.node[5].veinsmobility  posx  ETV
41	547859 60489 14074 6831047 9.7 199.9 1903 741.26083582488 2450.619217989 3726939.8205475 7846648686.2857
vector 42  RSUScenario.node[5].veinsmobility  posy  ETV
42	487394 60465 14074 6831047 9.7 199.9 1903 1309.6290584393 2120.9102030853 3196500.1996297 5491749442.4974
vector 43  RSUScenario.node[5].veinsmobility  speed  ETV
43	426321 61073 14447 6831047 9.8 199.9 1902 3.4492463285946e-07 27.779228442793 26247.258647113 495151.14943447
vector 44  RSUScenario.node[5].veinsmobility  acceleration  ETV
44	363656 62665 14872 6831047 9.9 199.9 1901 -4.5 2.6 163.99561851189 3147.2184733385
vector 45  RSUScenario.node[5].veinsmobility  co2emission  ETV
45	308421 55235 14872 6831047 9.9 199.9 1901 -0.45097354910972 20.802234800951 6345.603919321 40796.698621871
vector 48  RSUScenario.node[6].veinsmobility  posx  ETV
48	2917418 59715 23957 6831047 12.3 199.9 1877 788.22298465634 2450.6443032145 3712550.9186839 7850467394.5287
vector 49  RSUScenario.node[6].veinsmobility  posy  ETV
49	2857695 59723 23957 6831047 12.3 199.9 1877 1316.9554069983 2120.9540086687 3163268.3778427 5449947137.9122
vector 50  RSUScenario.node[6].veinsmobility  speed  ETV
50	2797477 60218 24431 6831047 12.4 199.9 1876 2.0538262791456e-06 27.77997836269 25769.704480103 486401.063272
vector 51  RSUScenario.node[6].veinsmobility  acceleration  ETV
51	2735685 61792 24906 6831047 12.5 199.9 1875 -4.5 2.6 163.83403202204 3087.3091018795
vector 52  RSUScenario.node[6].veinsmobility  co2emission  ETV
52	2681177 54508 24906 6831047 12.5 199.9 1875 -0.65799097982734 19.556901045194 6252.646278057 40212.035804919
vector 55  RSUScenario.node[7].veinsmobility  posx  ETV
55	4667324 58960 36481 6831047 14.9 199.9 1851 836.86814695667 2450.6473874226 3697567.3728052 7854387692.9534
vector 56  RSUScenario.node[7].veinsmobility  posy  ETV
56	4608395 58929 36481 6831047 14.9 199.9 1851 1320.3412964903 2120.9238623744 3129524.2546867 5406890591.9191
vector 57  RSUScenario.node[7].veinsmobility  speed  ETV
57	4548980 59415 37070 6831047 15 199.9 1850 9.3395972443443e-06 27.779999478573 25283.323421694 477462.99672589
vector 58  RSUScenario.node[7].veinsmobility  acceleration  ETV
58	4488029 60951 37658 6831047 15.1 199.9 1849 -4.5 2.6 163.46740213666 3019.5857179596
vector 59  RSUScenario.node[7].veinsmobility  co2emission  ETV
59	4434307 53722 37658 6831047 15.1 199.9 1849 -0.74795628409601 20.539359470788 6122.5028626434 39682.506195288
vector 62  RSUScenario.node[8].veinsmobility  posx  ETV
62	5366899 58163 51900 6831047 17.5 199.9 1825 883.03055217187 2450.6064521638 3679232.5967042 7850616194.1507
vector 63  RSUScenario.node[8].veinsmobility  posy  ETV
63	5308746 58153 51900 6831047 17.5 199.9 1825 1321.6037515029 2120.9349436769 3094751.996556 5359759180.8271
vector 64  RSUScenario.node[8].veinsmobility  speed  ETV
64	5250165 58581 52612 6831047 17.6 199.9 1824 3.3149718504943e-05 27.779695479325 24823.801445881 469332.80088432
vector 65  RSUScenario.node[8].veinsmobility  acceleration  ETV
65	5190079 60086 53325 6831047 17.7 199.9 1823 -4.5 2.6 164.13142919102 3002.5819432037
vector 66  RSUScenario.node[8].veinsmobility  co2emission  ETV
66	5137189 52890 53325 6831047 17.7 199.9 1823 -0.79379166758162 19.963178428635 6063.3284903363 39261.325440118
vector 69  RSUScenario.node[9].veinsmobility  posx  ETV
69	5662259 57404 70650 6831047 20.1 199.9 1799 931.05619437702 2450.619673271 3660748.8668156 7846887957.592
vector 70  RSUScenario.node[9].veinsmobility  posy  ETV
70	5604855 57404 70650 6831047 20.1 199.9 1799 1325.5658474984 2120.925028326 3061049.3118321 5317194813.3517
vector 71  RSUScenario.node[9].veinsmobility  speed  ETV
71	5547089 57766 71499 6831047 20.2 199.9 1798 0.00010261664194029 27.779594284073 24343.805597378 460646.0688725
vector 72  RSUScenario.node[9].veinsmobility  acceleration  ETV
72	5487867 59222 72349 6831047 20.3 199.9 1797 -4.5 2.6 164.03841258038 2983.1553903924
vector 73  RSUScenario.node[9].veinsmobility  co2emission  ETV
73	5435817 52050 72349 6831047 20.3 199.9 1797 -0.81260939754427 20.911796720402 5987.2367657898 39168.395404895
vector 76  RSUScenario.node[10].veinsmobility  posx  ETV
76	5931678 56632 94554 6831047 22.8 199.9 1772 996.86129603616 2450.6282044151 3659509.0756851 7913625101.1316
vector 77  RSUScenario.node[10].veinsmobility  posy  ETV
77	5875069 56609 94554 6831047 22.8 199.9 1772 1331.2104228716 2120.9255717397 3013578.0392407 5226939258.6311
vector 78  RSUScenario.node[10].veinsmobility  speed  ETV
78	5822642 52427 95633 6831047 22.9 199.9 1771 0 27.779247997364 23688.618943904 459005.82601508
vector 79  RSUScenario.node[10].veinsmobility  acceleration  ETV
79	5769158 53484 96634 6831047 23 199.9 1770 -4.5 2.6 163.93412392542 3488.1821414524
vector 80  RSUScenario.node[10].veinsmobility  co2emission  ETV
80	5719663 49495 96634 6831047 23 199.9 1770 -0.70866868431988 20.423535557842 6056.4394601598 40149.901790589
vector 83  RSUScenario.node[11].veinsmobility  posx  ETV
83	6210206 55814 120605 6831047 25.4 199.9 1746 1052.4100705421 2450.6004848684 3644501.3526042 7927686729.9308
vector 84  RSUScenario.node[11].veinsmobility  posy  ETV
84	6154548 55658 120605 6831047 25.4 199.9 1746 1335.9752395293 2120.9335186929 2980422.8508927 5185260405.3609
vector 85  RSUScenario.node[11].veinsmobility  speed  ETV
85	6097708 56840 121764 6831047 25.5 199.9 1745 5.2647337329042e-14 27.779618985592 23130.67716015 448533.40740051
vector 86  RSUScenario.node[11].veinsmobility  acceleration  ETV
86	6039494 58214 122889 6831047 25.6 199.9 1744 -4.5 2.6 163.18617399526 3288.5095377046
vector 87  RSUScenario.node[11].veinsmobility  co2emission  ETV
87	5988310 51184 122889 6831047 25.6 199.9 1744 -0.70685958960809 21.036840289083 5941.2426732287 39973.624997032
vector 90  RSUScenario.node[12].veinsmobility  posx  ETV
90	6484931 54999 150547 6831047 28 199.9 1720 1107.702246307 2450.6452933716 3627240.7241318 7936325631.6933
vector 91  RSUScenario.node[12].veinsmobility  posy  ETV
91	6429922 55009 150547 6831047 28 199.9 1720 1340.3067826042 2120.9158664541 2947768.0441629 5145629308.9105
vector 92  RSUScenario.node[12].veinsmobility  speed  ETV
92	6373930 55992 151879 6831047 28.1 199.9 1719 1.72850631706e-12 27.779703238432 22576.050962954 437967.65037498
vector 93  RSUScenario.node[12].veinsmobility  acceleration  ETV
93	6316635 57295 153171 6831047 28.2 199.9 1718 -4.5 2.6 164.09209259221 3137.4710832722
vector 94  RSUScenario.node[12].veinsmobility  co2emission  ETV
94	6266020 50615 153171 6831047 28.2 199.9 1718 -0.70873865377275 20.609935987389 5819.6260047518 38877.494380426
vector 97  RSUScenario.node[13].veinsmobility  posx  ETV
97	6758665 54147 187240 6831047 30.8 199.9 1692 1163.9743597577 2450.6547634476 3602993.2669483 7927151878.4709
vector 98  RSUScenario.node[13].veinsmobility  posy  ETV
98	6704501 54164 187240 6831047 30.8 199.9 1692 1345.8790329769 2120.9624065738 2913095.2680462 5105302956.3399
vector 99  RSUScenario.node[13].veinsmobility  speed  ETV
99	6649420 55081 188784 6831047 30.9 199.9 1691 2.8000662478463e-11 27.779008819787 22010.721115376 426532.88470718
vector 100  RSUScenario.node[13].veinsmobility  acceleration  ETV
100	6591377 58043 190267 6831047 31 199.9 1690 -4.5 2.6 163.99262278845 2969.0807481258
vector 101  RSUScenario.node[13].veinsmobility  co2emission  ETV
101	6539930 51447 190267 6831047 31 199.9 1690 -0.76347168976142 20.20744159918 5680.4634468203 37552.581095067
vector 104  RSUScenario.node[14].veinsmobility  posx  ETV
104	824856 54433 254478 6831047 35.3 199.9 1647 1208.8385122175 2450.6222591352 3530386.9748806 7797328639.9584
vector 105  RSUScenario.node[14].veinsmobility  posy  ETV
105	770445 54411 254478 6831047 35.3 199.9 1647 1353.9305683589 2120.9167244984 2848065.7841179 5010327855.6206
vector 106  RSUScenario.node[14].veinsmobility  speed  ETV
106	715129 55316 256141 6831047 35.4 199.9 1646 2.8765002654245e-10 27.77995088157 21548.713287671 419120.96138208
vector 107  RSUScenario.node[14].veinsmobility  acceleration  ETV
107	658630 56499 257856 6831047 35.5 199.9 1645 -4.5 2.6 165.60541093406 2879.1063287548
vector 108  RSUScenario.node[14].veinsmobility  co2emission  ETV
108	608348 50282 257856 6831047 35.5 199.9 1645 -0.80531153758219 19.905595742484 5606.8462810376 37773.769777273
vector 111  RSUScenario.node[15].veinsmobility  posx  ETV
111	1052817 44133 787858 6831047 67.7 199.9 1323 1263.0463432607 2450.6476020372 2785490.8218283 6044111306.8227
vector 112  RSUScenario.node[15].veinsmobility  posy  ETV
112	1008658 44159 787858 6831047 67.7 199.9 1323 1356.3567710407 2120.9345681611 2345989.8014804 4232492919.3373
vector 113  RSUScenario.node[15].veinsmobility  speed  ETV
113	964550 44108 789637 6831047 67.8 199.9 1322 0.25430879177246 27.779609111873 21014.805183869 409236.55492253
vector 114  RSUScenario.node[15].veinsmobility  acceleration  ETV
114	919500 45050 791448 6831047 67.9 199.9 1321 -4.5 2.6 163.85722605724 2892.2926348143
vector 115  RSUScenario.node[15].veinsmobility  co2emission  ETV
115	879289 40211 791448 6831047 67.9 199.9 1321 -0.79521889287957 21.089764912186 5177.3516903683 37459.808076674
vector 118  RSUScenario.node[16].veinsmobility  posx  ETV
118	1267002 43320 833327 6831047 70.3 199.9 1297 1309.1769751156 2450.6264794635 2754907.502621 6011647306.185
vector 119  RSUScenario.node[16].veinsmobility  posy  ETV
119	1223719 43283 833327 6831047 70.3 199.9 1297 1367.2060675453 2120.9279983537 2312039.7107176 4188873282.4391
vector 120  RSUScenario.node[16].veinsmobility  speed  ETV
120	1180429 43290 835284 6831047 70.4 199.9 1296 0.25604540406028 27.779562298502 20535.677900485 401130.27637693
vector 121  RSUScenario.node[16].veinsmobility  acceleration  ETV
121	1136264 44165 837235 6831047 70.5 199.9 1295 -4.5 2.6 163.91777218664 2899.5716367185
vector 122  RSUScenario.node[16].veinsmobility  co2emission  ETV
122	1096950 39314 837235 6831047 70.5 199.9 1295 -0.79778016486051 20.43247009113 5126.0369693963 37690.528112445
vector 125  RSUScenario.node[17].veinsmobility  posx  ETV
125	1476955 42434 885652 6831047 73 199.9 1270 1357.9745056236 2450.656678524 2721188.543129 5971748808.7688
vector 126  RSUScenario.node[17].veinsmobility  posy  ETV
126	1434480 42475 885652 6831047 73 199.9 1270 1371.9628145052 2120.9593439698 2276732.1732501 4143881503.3547
vector 127  RSUScenario.node[17].veinsmobility  speed  ETV
127	1392052 42428 887780 6831047 73.1 199.9 1269 0.25361050302675 27.779782709777 20045.655456578 392343.37827545
vector 128  RSUScenario.node[17].veinsmobility  acceleration  ETV
128	1348842 43210 889924 6831047 73.2 199.9 1268 -4.5 2.6 163.41604701147 2906.2999196087
vector 129  RSUScenario.node[17].veinsmobility  co2emission  ETV
129	1310322 38520 889924 6831047 73.2 199.9 1268 -0.59007257861817 21.173524791005 5041.0705264016 36488.654748309
vector 132  RSUScenario.node[18].veinsmobility  posx  ETV
132	1682613 41597 942917 6831047 75.7 199.9 1243 1402.4965097803 2450.6089666275 2685669.1769719 5926662341.9621
vector 133  RSUScenario.node[18].veinsmobility  posy  ETV
133	1641007 41606 942917 6831047 75.7 199.9 1243 1389.9979754174 2120.9392319955 2240781.8914318 4096985695.5731
vector 134  RSUScenario.node[18].veinsmobility  speed  ETV
134	1599418 41589 945233 6831047 75.8 199.9 1242 0.25714591522701 27.779895664898 19565.387122432 384182.19941623
vector 135  RSUScenario.node[18].veinsmobility  acceleration  ETV
135	1557060 42358 947573 6831047 75.9 199.9 1241 -4.5 2.6 163.51344984404 2854.4944841405
vector 136  RSUScenario.node[18].veinsmobility  co2emission  ETV
136	1519389 37671 947573 6831047 75.9 199.9 1241 -0.51935480296152 20.475666798081 4962.3400441297 36116.752002081
vector 139  RSUScenario.node[19].veinsmobility  posx  ETV
139	1884093 40789 1002106 6831047 78.3 199.9 1217 1446.9788917907 2450.6174240229 2651574.8218175 5884612644.0006
vector 140  RSUScenario.node[19].veinsmobility  posy  ETV
140	1843319 40774 1002106 6831047 78.3 199.9 1217 1410.9885202115 2120.9356486592 2206499.8733026 4053298863.9757
vector 141  RSUScenario.node[19].veinsmobility  speed  ETV
141	1802545 40774 1004604 6831047 78.4 199.9 1216 0.24815581214405 27.778576476357 19072.493106037 375349.22023961
vector 142  RSUScenario.node[19].veinsmobility  acceleration  ETV
142	1761114 41431 1007102 6831047 78.5 199.9 1215 -4.5 2.6 164.15354449188 2865.681916596
vector 143  RSUScenario.node[19].veinsmobility  co2emission  ETV
143	1724210 36904 1007102 6831047 78.5 199.9 1215 -0.78376069280477 20.767171060699 4883.6381720563 35729.22870175
vector 146  RSUScenario.node[20].veinsmobility  posx  ETV
146	2071611 39948 1068027 6831047 81 199.9 1190 1923.1445931349 2450.6213090942 2769999.6717711 6467179433.774
vector 147  RSUScenario.node[20].veinsmobility  posy  ETV
147	2031685 39926 1068027 6831047 81 199.9 1190 1578.9478335427 2120.955702032 2150321.5358275 3930662977.2908
vector 148  RSUScenario.node[20].veinsmobility  speed  ETV
148	1995756 35929 1070676 6831047 81.1 199.9 1189 0 27.776711394712 12553.74980431 217895.81915596
vector 149  RSUScenario.node[20].veinsmobility  acceleration  ETV
149	1959580 36176 1073356 6831047 81.2 199.9 1188 -4.5 2.6 273.98441932416 3091.7852087391
vector 150  RSUScenario.node[20].veinsmobility  co2emission  ETV
150	1924882 34698 1073356 6831047 81.2 199.9 1188 -0.8162062172704 20.534078838299 4254.8838566954 30982.016282453
vector 153  RSUScenario.node[21].veinsmobility  posx  ETV
153	2266968 39007 1139130 6831047 83.7 199.9 1163 2005.928213342 2450.5989147058 2723000.0278556 6389445208.8544
vector 154  RSUScenario.node[21].veinsmobility  posy  ETV
154	2227928 39040 1139130 6831047 83.7 199.9 1163 1578.9478335427 2120.9304625755 2097943.4792866 3830412112.6299
vector 155  RSUScenario.node[21].veinsmobility  speed  ETV
155	2188041 39887 1141988 6831047 83.8 199.9 1162 1.9848891243935e-12 27.768514805271 11393.961387086 182431.86811844
vector 156  RSUScenario.node[21].veinsmobility  acceleration  ETV
156	2147511 40530 1144868 6831047 83.9 199.9 1161 -4.2515657312629 2.6 274.28540405787 2807.7749606792
vector 157  RSUScenario.node[21].veinsmobility  co2emission  ETV
157	2111559 35952 1144868 6831047 83.9 199.9 1161 0.29101428680191 20.250520730335 4092.136060384 29729.394116471
vector 160  RSUScenario.node[22].veinsmobility  posx  ETV
160	2457721 38175 1211949 6831047 86.3 199.9 1137 2063.6931086633 2450.643318628 2673077.9713961 6295288327.3517
vector 161  RSUScenario.node[22].veinsmobility  posy  ETV
161	2419544 38177 1211949 6831047 86.3 199.9 1137 1578.9478335427 2120.9673873857 2045324.2864436 3725301793.9663
vector 162  RSUScenario.node[22].veinsmobility  speed  ETV
162	2380567 38977 1214949 6831047 86.4 199.9 1136 6.2119809259411e-11 22.219553360699 10571.602566369 159517.81480491
vector 163  RSUScenario.node[22].veinsmobility  acceleration  ETV
163	2340968 39599 1217880 6831047 86.5 199.9 1135 -4.0476544601959 2.6 212.35098157017 2527.3161824604
vector 164  RSUScenario.node[22].veinsmobility  co2emission  ETV
164	2305975 34993 1217880 6831047 86.5 199.9 1135 0.42858575011494 16.864255097083 3549.2394932214 21458.376053346
vector 167  RSUScenario.node[23].veinsmobility  posx  ETV
167	2643853 37324 1288303 6831047 88.9 199.9 1111 2106.0024909253 2450.6545364463 2621815.2210948 6195781093.0092
vector 168  RSUScenario.node[23].veinsmobility  posy  ETV
168	2606546 37307 1288303 6831047 88.9 199.9 1111 1578.9478335427 2120.9588985238 1990422.2518849 3611167579.1243
vector 169  RSUScenario.node[23].veinsmobility  speed  ETV
169	2568511 38035 1291406 6831047 89 199.9 1110 1.108414686105e-09 22.217862700217 9946.2211731902 146219.33516043
vector 170  RSUScenario.node[23].veinsmobility  acceleration  ETV
170	2529791 38720 1294530 6831047 89.1 199.9 1109 -3.7689478951229 2.6 146.59066447244 2309.9285515407
vector 171  RSUScenario.node[23].veinsmobility  co2emission  ETV
171	2495896 33895 1294530 6831047 89.1 199.9 1109 0.42626607194785 16.475962532901 3155.7799641334 16903.730482993
vector 174  RSUScenario.node[24].veinsmobility  posx  ETV
174	3121609 36473 1369093 6831047 91.5 199.9 1085 2131.8768919265 2450.6190590275 2569255.335903 6090793677.4785
vector 175  RSUScenario.node[24].veinsmobility  posy  ETV
175	3085141 36468 1369093 6831047 91.5 199.9 1085 1578.9478335427 2120.9354866724 1934594.8357614 3493131371.8718
vector 176  RSUScenario.node[24].veinsmobility  speed  ETV
176	3048004 37137 1372283 6831047 91.6 199.9 1084 1.2804826916339e-08 22.21715550924 9562.0122660526 140166.43696978
vector 177  RSUScenario.node[24].veinsmobility  acceleration  ETV
177	3010156 37848 1375570 6831047 91.7 199.9 1083 -3.8820655354008 2.6 88.885788426175 2118.7625335741
vector 178  RSUScenario.node[24].veinsmobility  co2emission  ETV
178	2977133 33023 1375570 6831047 91.7 199.9 1083 0.38171695310158 16.368884571527 2863.0962277288 14559.246863484
vector 181  RSUScenario.node[25].veinsmobility  posx  ETV
181	3299076 35622 1454940 6831047 94.1 199.9 1059 2145.9456741206 2450.6449381 2515449.96847 5980315269.5157
vector 182  RSUScenario.node[25].veinsmobility  posy  ETV
182	3263475 35601 1454940 6831047 94.1 199.9 1059 1578.9478335427 2120.9685711684 1878788.9631777 3374944080.1942
vector 183  RSUScenario.node[25].veinsmobility  speed  ETV
183	3227227 36248 1458339 6831047 94.2 199.9 1058 1.1044479688379e-07 22.217111391746 9373.7169847578 137856.27847059
vector 184  RSUScenario.node[25].veinsmobility  acceleration  ETV
184	3190215 37012 1461892 6831047 94.3 199.9 1057 -4.1881431866952 2.6 41.864198088115 1884.3641830093
vector 185  RSUScenario.node[25].veinsmobility  co2emission  ETV
185	3158082 32133 1461892 6831047 94.3 199.9 1057 0.26429661417403 16.328106310824 2739.5708061036 14093.494044418
vector 188  RSUScenario.node[26].veinsmobility  posx  ETV
188	3472265 34773 1546335 6831047 96.7 199.9 1033 2163.3164193335 2450.6371570026 2461451.3140384 5869095355.1551
vector 189  RSUScenario.node[26].veinsmobility  posy  ETV
189	3437488 34777 1546335 6831047 96.7 199.9 1033 1578.9478335427 2120.9534425242 1822361.4574174 3254274707.626
vector 190  RSUScenario.node[26].veinsmobility  speed  ETV
190	3402156 35332 1550144 6831047 96.8 199.9 1032 7.5987295400894e-07 22.211180316813 9175.655438 135720.23251238
vector 191  RSUScenario.node[26].veinsmobility  acceleration  ETV
191	3366035 36121 1553993 6831047 96.9 199.9 1031 -3.6986996810235 2.6 76.991400646447 1670.3418325696
vector 192  RSUScenario.node[26].veinsmobility  co2emission  ETV
192	3334698 31337 1553993 6831047 96.9 199.9 1031 0.43513746911612 16.147508377862 2653.9632630228 13581.997224043
vector 195  RSUScenario.node[27].veinsmobility  posx  ETV
195	3641112 33877 1647561 6831047 99.4 199.9 1006 2188.4100615775 2450.6365771671 2403460.5784305 5744939784.2402
vector 196  RSUScenario.node[27].veinsmobility  posy  ETV
196	3607225 33887 1647561 6831047 99.4 199.9 1006 1578.9478335427 2120.9614779456 1765320.6050073 3134664275.6546
vector 197  RSUScenario.node[27].veinsmobility  speed  ETV
197	3572829 34396 1651583 6831047 99.5 199.9 1005 3.848826228958e-06 22.217552027937 8899.2349865997 132360.46919369
vector 198  RSUScenario.node[27].veinsmobility  acceleration  ETV
198	3537660 35169 1655594 6831047 99.6 199.9 1004 -3.5694748574127 2.6 118.26786779353 1539.776661512
vector 199  RSUScenario.node[27].veinsmobility  co2emission  ETV
199	3507038 30622 1655594 6831047 99.6 199.9 1004 0.5788379313739 14.12289806349 2634.9873773755 13550.355646502
vector 202  RSUScenario.node[28].veinsmobility  posx  ETV
202	3805485 32999 1755124 6831047 102.1 199.9 979 2227.4786297354 2450.6445186521 2345197.9998385 5619762013.535
vector 203  RSUScenario.node[28].veinsmobility  posy  ETV
203	3772506 32979 1755124 6831047 102.1 199.9 979 1578.9478335427 2120.912794075 1707460.2860583 3011740395.0293
vector 204  RSUScenario.node[28].veinsmobility  speed  ETV
204	3739057 33449 1761256 6831047 102.2 199.9 978 1.5956486747517e-05 22.214814219016 8497.0596778139 125992.276811
vector 205  RSUScenario.node[28].veinsmobility  acceleration  ETV
205	3704825 34232 1765494 6831047 102.3 199.9 977 -3.6980856686435 2.6 169.36761624962 1354.0934964784
vector 206  RSUScenario.node[28].veinsmobility  co2emission  ETV
206	3674989 29836 1765494 6831047 102.3 199.9 977 0.76048725118367 16.556795406488 2579.6316011762 13515.996071102
vector 209  RSUScenario.node[29].veinsmobility  posx  ETV
209	3964785 31802 1905868 6831047 105.6 199.9 944 2283.463209183 2450.6159163405 2266437.7362404 5442724335.9028
vector 210  RSUScenario.node[29].veinsmobility  posy  ETV
210	3932982 31803 1905868 6831047 105.6 199.9 944 1578.9478335427 2120.9087636834 1636424.6927374 2866599458.0858
vector 211  RSUScenario.node[29].veinsmobility  speed  ETV
211	3900710 32272 1910381 6831047 105.7 199.9 943 4.9981349551833e-05 22.219165075347 7940.0244333523 114820.33464679
vector 212  RSUScenario.node[29].veinsmobility  acceleration  ETV
212	3867737 32973 1914896 6831047 105.8 199.9 942 -3.3840829247265 2.6 219.51276839212 1157.3630729617
vector 213  RSUScenario.node[29].veinsmobility  co2emission  ETV
213	3838484 29253 1914896 6831047 105.8 199.9 942 0.49350917359599 16.139403035787 2507.9574177298 13202.482272258
vector 216  RSUScenario.node[30].veinsmobility  posx  ETV
216	4080169 24021 2926244 6831047 128.8 199.9 712 2333.8313843089 2442.315259831 1700352.2707828 4061162121.4371
vector 217  RSUScenario.node[30].veinsmobility  posy  ETV
217	4056160 24009 2926244 6831047 128.8 199.9 712 1578.9478335427 1813.68336723 1166284.5893508 1912543745.7821
vector 218  RSUScenario.node[30].veinsmobility  speed  ETV
218	4036230 19930 2930836 6831047 128.9 199.9 711 0 16.663771004416 3438.3053995904 36914.910650784
vector 219  RSUScenario.node[30].veinsmobility  acceleration  ETV
219	4016385 19845 2935297 6831047 129 199.9 710 -4.5 2.6 164.13734202731 1740.0194479991
vector 220  RSUScenario.node[30].veinsmobility  co2emission  ETV
220	3996587 19798 2935297 6831047 129 199.9 710 0.92951764673037 12.260548325965 1736.2204238487 8247.861091442
vector 223  RSUScenario.node[31].veinsmobility  posx  ETV
223	4196250 22903 3069480 6831047 132 199.9 680 2333.8366334906 2438.4725284445 1623363.878377 3875869504.7086
vector 224  RSUScenario.node[31].veinsmobility  posy  ETV
224	4173338 22912 3069480 6831047 132 199.9 680 1578.9478335427 1758.6784096016 1108426.6873135 1808226627.8573
vector 225  RSUScenario.node[31].veinsmobility  speed  ETV
225	4149482 23856 3074205 6831047 132.1 199.9 679 5.1295413412708e-13 16.273093481607 2886.5801102107 26403.949035125
vector 226  RSUScenario.node[31].veinsmobility  acceleration  ETV
226	4125389 24093 3078922 6831047 132.2 199.9 678 -3.8587567522093 2.6 160.17667779239 1414.0681204107
vector 227  RSUScenario.node[31].veinsmobility  co2emission  ETV
227	4104190 21199 3078922 6831047 132.2 199.9 678 0.973 12.155532892442 1617.7149078421 7245.1877940379
vector 230  RSUScenario.node[32].veinsmobility  posx  ETV
230	4307095 21964 3202372 6831047 134.8 199.9 652 2333.8379260454 2432.863439113 1556287.6299047 3715140960.3597
vector 231  RSUScenario.node[32].veinsmobility  posy  ETV
231	4285116 21979 3202372 6831047 134.8 199.9 652 1578.9478335427 1718.665554841 1058653.4217304 1720117379.2514
vector 232  RSUScenario.node[32].veinsmobility  speed  ETV
232	4262268 22848 3207585 6831047 134.9 199.9 651 1.488821559745e-11 13.885159029737 2476.8831683239 19874.176761906
vector 233  RSUScenario.node[32].veinsmobility  acceleration  ETV
233	4239145 23123 3212589 6831047 135 199.9 650 -3.5578109688882 2.6 104.88418223231 1219.5625915942
vector 234  RSUScenario.node[32].veinsmobility  co2emission  ETV
234	4219153 19992 3212589 6831047 135 199.9 650 0.973 9.9471689483931 1341.8094000641 4988.0504101043
vector 237  RSUScenario.node[33].veinsmobility  posx  ETV
237	4413237 21070 3338614 6831047 137.5 199.9 625 2333.8317883576 2424.2287312784 1491836.6053671 3561277746.929
vector 238  RSUScenario.node[33].veinsmobility  posy  ETV
238	4392178 21059 3338614 6831047 137.5 199.9 625 1578.9478335427 1700.9903719667 1011361.4098153 1637632108.3883
vector 239  RSUScenario.node[33].veinsmobility  speed  ETV
239	4370296 21882 3343873 6831047 137.6 199.9 624 2.352355276863e-10 13.81138533415 2245.2193029787 17263.365173788
vector 240  RSUScenario.node[33].veinsmobility  acceleration  ETV
240	4348107 22189 3349154 6831047 137.7 199.9 623 -3.642141921795 2.6 48.165937619289 1003.8815620713
vector 241  RSUScenario.node[33].veinsmobility  co2emission  ETV
241	4329059 19048 3349154 6831047 137.7 199.9 623 0.973 9.4185326653217 1156.9774112144 3730.1898698146
vector 244  RSUScenario.node[34].veinsmobility  posx  ETV
244	4806985 20150 3481135 6831047 140.2 199.9 598 2333.829383661 2413.5228035761 1427761.3722786 3409247881.8222
vector 245  RSUScenario.node[34].veinsmobility  posy  ETV
245	4786840 20145 3481135 6831047 140.2 199.9 598 1578.9478335427 1699.6416162681 964325.77090735 1556024463.0935
vector 246  RSUScenario.node[34].veinsmobility  speed  ETV
246	4765917 20923 3486757 6831047 140.3 199.9 597 2.3258870198125e-09 13.543995083708 2094.8552526208 16028.22389128
vector 247  RSUScenario.node[34].veinsmobility  acceleration  ETV
247	4744585 21332 3492374 6831047 140.4 199.9 596 -3.299011602687 2.6 57.833369706048 788.59209678294
vector 248  RSUScenario.node[34].veinsmobility  co2emission  ETV